
     Program PWSCF v.6.7MaX starts on 14Mar2022 at 16:45:30 

     This program is part of the open-source Quantum ESPRESSO suite
     for quantum simulation of materials; please cite
         "P. Giannozzi et al., J. Phys.:Condens. Matter 21 395502 (2009);
         "P. Giannozzi et al., J. Phys.:Condens. Matter 29 465901 (2017);
          URL http://www.quantum-espresso.org", 
     in publications or presentations arising from this work. More details at
     http://www.quantum-espresso.org/quote

     Parallel version (MPI & OpenMP), running on      72 processor cores
     Number of MPI processes:                72
     Threads/MPI process:                     1

     MPI processes distributed on     1 nodes
     R & G space division:  proc/nbgrp/npool/nimage =      72
     Reading input from fe_relax.in

     Current dimensions of program PWSCF are:
     Max number of different atomic species (ntypx) = 10
     Max number of k-points (npk) =  40000
     Max angular momentum in pseudopotentials (lmaxx) =  3
     file Fe.pbe-spn-kjpaw_psl.1.0.0.UPF: wavefunction(s)  3P 3D renormalized
     file Fe.pbe-spn-kjpaw_psl.1.0.0.UPF: wavefunction(s)  3P 3D renormalized

     Subspace diagonalization in iterative solution of the eigenvalue problem:
     one sub-group per band group will be used
     ELPA distributed-memory algorithm (size of sub-group:  8*  8 procs)

     Found symmetry operation: I + (  0.2500  0.0000  0.2500)
     This is a supercell, fractional translations are disabled
     Message from routine setup:
     using ibrav=0 with symmetry is DISCOURAGED, use correct ibrav instead
 
     Parallelization info
     --------------------
     sticks:   dense  smooth     PW     G-vecs:    dense   smooth      PW
     Min          83      55     15                 4783     2567     369
     Max          84      56     17                 4788     2572     372
     Sum        6025    3993   1107               344569   184961   26639
 


     bravais-lattice index     =            0
     lattice parameter (alat)  =      12.9571  a.u.
     unit-cell volume          =    2287.6592 (a.u.)^3
     number of atoms/cell      =           32
     number of atomic types    =            2
     number of electrons       =       512.00
     number of Kohn-Sham states=          307
     kinetic-energy cutoff     =      71.0000  Ry
     charge density cutoff     =     430.0000  Ry
     scf convergence threshold =      1.0E-08
     mixing beta               =       0.3000
     number of iterations used =           10  plain     mixing
     energy convergence thresh.=      1.0E-04
     force convergence thresh. =      1.0E-03
     press convergence thresh. =      5.0E-01
     Exchange-correlation= SLA  PW   PBX  PBC
                           (   1   4   3   4   0   0   0)
     nstep                     =           40


     celldm(1)=  12.957143  celldm(2)=   0.000000  celldm(3)=   0.000000
     celldm(4)=   0.000000  celldm(5)=   0.000000  celldm(6)=   0.000000

     crystal axes: (cart. coord. in units of alat)
               a(1) = (   1.000000   0.000000   0.000000 )  
               a(2) = (   0.000000   1.051631   0.000000 )  
               a(3) = (   0.000000   0.000000   1.000000 )  

     reciprocal axes: (cart. coord. in units 2 pi/alat)
               b(1) = (  1.000000  0.000000  0.000000 )  
               b(2) = (  0.000000  0.950903  0.000000 )  
               b(3) = (  0.000000  0.000000  1.000000 )  


     PseudoPot. # 1 for Fe read from file:
     /rds/homes/b/bxp912/pp/Fe.pbe-spn-kjpaw_psl.1.0.0.UPF
     MD5 check sum: 42f43b795421b414b0dc916aa790dbcb
     Pseudo is Projector augmented-wave + core cor, Zval = 16.0
     Generated using &quot;atomic&quot; code by A. Dal Corso  v.6.3
     Shape of augmentation charge: PSQ
     Using radial grid of 1191 points,  6 beta functions with: 
                l(1) =   0
                l(2) =   0
                l(3) =   1
                l(4) =   1
                l(5) =   2
                l(6) =   2
     Q(r) pseudized with 0 coefficients 


     PseudoPot. # 2 for Fe read from file:
     /rds/homes/b/bxp912/pp/Fe.pbe-spn-kjpaw_psl.1.0.0.UPF
     MD5 check sum: 42f43b795421b414b0dc916aa790dbcb
     Pseudo is Projector augmented-wave + core cor, Zval = 16.0
     Generated using &quot;atomic&quot; code by A. Dal Corso  v.6.3
     Shape of augmentation charge: PSQ
     Using radial grid of 1191 points,  6 beta functions with: 
                l(1) =   0
                l(2) =   0
                l(3) =   1
                l(4) =   1
                l(5) =   2
                l(6) =   2
     Q(r) pseudized with 0 coefficients 


     atomic species   valence    mass     pseudopotential
        Fe1           16.00    55.84500     Fe( 1.00)
        Fe2           16.00    55.84500     Fe( 1.00)

     Starting magnetic structure 
     atomic species   magnetization
        Fe1          0.100
        Fe2         -0.100

     16 Sym. Ops., with inversion, found



   Cartesian axes

     site n.     atom                  positions (alat units)
         1           Fe1 tau(   1) = (   0.0000000   0.0000000   0.0000000  )
         2           Fe2 tau(   2) = (   0.2500000   0.2629079   0.0000000  )
         3           Fe1 tau(   3) = (   0.2500000   0.0000000   0.2500000  )
         4           Fe2 tau(   4) = (   0.0000000   0.2629079   0.2500000  )
         5           Fe1 tau(   5) = (   0.0000000   0.0000000   0.5000000  )
         6           Fe2 tau(   6) = (   0.2500000   0.2629079   0.5000000  )
         7           Fe1 tau(   7) = (   0.2500000   0.0000000   0.7500000  )
         8           Fe2 tau(   8) = (   0.0000000   0.2629079   0.7500000  )
         9           Fe1 tau(   9) = (   0.0000000   0.5258157   0.0000000  )
        10           Fe2 tau(  10) = (   0.2500000   0.7887236   0.0000000  )
        11           Fe1 tau(  11) = (   0.2500000   0.5258157   0.2500000  )
        12           Fe2 tau(  12) = (   0.0000000   0.7887236   0.2500000  )
        13           Fe1 tau(  13) = (   0.0000000   0.5258157   0.5000000  )
        14           Fe2 tau(  14) = (   0.2500000   0.7887236   0.5000000  )
        15           Fe1 tau(  15) = (   0.2500000   0.5258157   0.7500000  )
        16           Fe2 tau(  16) = (   0.0000000   0.7887236   0.7500000  )
        17           Fe1 tau(  17) = (   0.5000000   0.0000000   0.0000000  )
        18           Fe2 tau(  18) = (   0.7500000   0.2629079   0.0000000  )
        19           Fe1 tau(  19) = (   0.7500000   0.0000000   0.2500000  )
        20           Fe2 tau(  20) = (   0.5000000   0.2629079   0.2500000  )
        21           Fe1 tau(  21) = (   0.5000000   0.0000000   0.5000000  )
        22           Fe2 tau(  22) = (   0.7500000   0.2629079   0.5000000  )
        23           Fe1 tau(  23) = (   0.7500000   0.0000000   0.7500000  )
        24           Fe2 tau(  24) = (   0.5000000   0.2629079   0.7500000  )
        25           Fe1 tau(  25) = (   0.5000000   0.5258157   0.0000000  )
        26           Fe2 tau(  26) = (   0.7500000   0.7887236   0.0000000  )
        27           Fe1 tau(  27) = (   0.7500000   0.5258157   0.2500000  )
        28           Fe2 tau(  28) = (   0.5000000   0.7887236   0.2500000  )
        29           Fe1 tau(  29) = (   0.5000000   0.5258157   0.5000000  )
        30           Fe2 tau(  30) = (   0.7500000   0.7887236   0.5000000  )
        31           Fe1 tau(  31) = (   0.7500000   0.5258157   0.7500000  )
        32           Fe2 tau(  32) = (   0.5000000   0.7887236   0.7500000  )

     number of k points=    75  Marzari-Vanderbilt smearing, width (Ry)=  0.0400
                       cart. coord. in units 2pi/alat
        k(    1) = (   0.0555556   0.0528280   0.0555556), wk =   0.0109739
        k(    2) = (   0.0555556   0.0528280   0.1666667), wk =   0.0219479
        k(    3) = (   0.0555556   0.0528280   0.2777778), wk =   0.0219479
        k(    4) = (   0.0555556   0.0528280   0.3888889), wk =   0.0219479
        k(    5) = (   0.0555556   0.0528280  -0.5000000), wk =   0.0109739
        k(    6) = (   0.0555556   0.1584839   0.0555556), wk =   0.0109739
        k(    7) = (   0.0555556   0.1584839   0.1666667), wk =   0.0219479
        k(    8) = (   0.0555556   0.1584839   0.2777778), wk =   0.0219479
        k(    9) = (   0.0555556   0.1584839   0.3888889), wk =   0.0219479
        k(   10) = (   0.0555556   0.1584839  -0.5000000), wk =   0.0109739
        k(   11) = (   0.0555556   0.2641398   0.0555556), wk =   0.0109739
        k(   12) = (   0.0555556   0.2641398   0.1666667), wk =   0.0219479
        k(   13) = (   0.0555556   0.2641398   0.2777778), wk =   0.0219479
        k(   14) = (   0.0555556   0.2641398   0.3888889), wk =   0.0219479
        k(   15) = (   0.0555556   0.2641398  -0.5000000), wk =   0.0109739
        k(   16) = (   0.0555556   0.3697958   0.0555556), wk =   0.0109739
        k(   17) = (   0.0555556   0.3697958   0.1666667), wk =   0.0219479
        k(   18) = (   0.0555556   0.3697958   0.2777778), wk =   0.0219479
        k(   19) = (   0.0555556   0.3697958   0.3888889), wk =   0.0219479
        k(   20) = (   0.0555556   0.3697958  -0.5000000), wk =   0.0109739
        k(   21) = (   0.0555556  -0.4754517   0.0555556), wk =   0.0054870
        k(   22) = (   0.0555556  -0.4754517   0.1666667), wk =   0.0109739
        k(   23) = (   0.0555556  -0.4754517   0.2777778), wk =   0.0109739
        k(   24) = (   0.0555556  -0.4754517   0.3888889), wk =   0.0109739
        k(   25) = (   0.0555556  -0.4754517  -0.5000000), wk =   0.0054870
        k(   26) = (   0.1666667   0.0528280   0.1666667), wk =   0.0109739
        k(   27) = (   0.1666667   0.0528280   0.2777778), wk =   0.0219479
        k(   28) = (   0.1666667   0.0528280   0.3888889), wk =   0.0219479
        k(   29) = (   0.1666667   0.0528280  -0.5000000), wk =   0.0109739
        k(   30) = (   0.1666667   0.1584839   0.1666667), wk =   0.0109739
        k(   31) = (   0.1666667   0.1584839   0.2777778), wk =   0.0219479
        k(   32) = (   0.1666667   0.1584839   0.3888889), wk =   0.0219479
        k(   33) = (   0.1666667   0.1584839  -0.5000000), wk =   0.0109739
        k(   34) = (   0.1666667   0.2641398   0.1666667), wk =   0.0109739
        k(   35) = (   0.1666667   0.2641398   0.2777778), wk =   0.0219479
        k(   36) = (   0.1666667   0.2641398   0.3888889), wk =   0.0219479
        k(   37) = (   0.1666667   0.2641398  -0.5000000), wk =   0.0109739
        k(   38) = (   0.1666667   0.3697958   0.1666667), wk =   0.0109739
        k(   39) = (   0.1666667   0.3697958   0.2777778), wk =   0.0219479
        k(   40) = (   0.1666667   0.3697958   0.3888889), wk =   0.0219479
        k(   41) = (   0.1666667   0.3697958  -0.5000000), wk =   0.0109739
        k(   42) = (   0.1666667  -0.4754517   0.1666667), wk =   0.0054870
        k(   43) = (   0.1666667  -0.4754517   0.2777778), wk =   0.0109739
        k(   44) = (   0.1666667  -0.4754517   0.3888889), wk =   0.0109739
        k(   45) = (   0.1666667  -0.4754517  -0.5000000), wk =   0.0054870
        k(   46) = (   0.2777778   0.0528280   0.2777778), wk =   0.0109739
        k(   47) = (   0.2777778   0.0528280   0.3888889), wk =   0.0219479
        k(   48) = (   0.2777778   0.0528280  -0.5000000), wk =   0.0109739
        k(   49) = (   0.2777778   0.1584839   0.2777778), wk =   0.0109739
        k(   50) = (   0.2777778   0.1584839   0.3888889), wk =   0.0219479
        k(   51) = (   0.2777778   0.1584839  -0.5000000), wk =   0.0109739
        k(   52) = (   0.2777778   0.2641398   0.2777778), wk =   0.0109739
        k(   53) = (   0.2777778   0.2641398   0.3888889), wk =   0.0219479
        k(   54) = (   0.2777778   0.2641398  -0.5000000), wk =   0.0109739
        k(   55) = (   0.2777778   0.3697958   0.2777778), wk =   0.0109739
        k(   56) = (   0.2777778   0.3697958   0.3888889), wk =   0.0219479
        k(   57) = (   0.2777778   0.3697958  -0.5000000), wk =   0.0109739
        k(   58) = (   0.2777778  -0.4754517   0.2777778), wk =   0.0054870
        k(   59) = (   0.2777778  -0.4754517   0.3888889), wk =   0.0109739
        k(   60) = (   0.2777778  -0.4754517  -0.5000000), wk =   0.0054870
        k(   61) = (   0.3888889   0.0528280   0.3888889), wk =   0.0109739
        k(   62) = (   0.3888889   0.0528280  -0.5000000), wk =   0.0109739
        k(   63) = (   0.3888889   0.1584839   0.3888889), wk =   0.0109739
        k(   64) = (   0.3888889   0.1584839  -0.5000000), wk =   0.0109739
        k(   65) = (   0.3888889   0.2641398   0.3888889), wk =   0.0109739
        k(   66) = (   0.3888889   0.2641398  -0.5000000), wk =   0.0109739
        k(   67) = (   0.3888889   0.3697958   0.3888889), wk =   0.0109739
        k(   68) = (   0.3888889   0.3697958  -0.5000000), wk =   0.0109739
        k(   69) = (   0.3888889  -0.4754517   0.3888889), wk =   0.0054870
        k(   70) = (   0.3888889  -0.4754517  -0.5000000), wk =   0.0054870
        k(   71) = (  -0.5000000   0.0528280  -0.5000000), wk =   0.0027435
        k(   72) = (  -0.5000000   0.1584839  -0.5000000), wk =   0.0027435
        k(   73) = (  -0.5000000   0.2641398  -0.5000000), wk =   0.0027435
        k(   74) = (  -0.5000000   0.3697958  -0.5000000), wk =   0.0027435
        k(   75) = (  -0.5000000  -0.4754517  -0.5000000), wk =   0.0013717

     Dense  grid:   344569 G-vectors     FFT dimensions: (  90,  90,  90)

     Smooth grid:   184961 G-vectors     FFT dimensions: (  72,  75,  72)

     Estimated max dynamical RAM per process >     258.87 MB

     Estimated total dynamical RAM >      18.20 GB

     Check: negative core charge=   -0.000006
     Generating pointlists ...
     new r_m :   0.1458 (alat units)  1.8897 (a.u.) for type    1
     new r_m :   0.1458 (alat units)  1.8897 (a.u.) for type    2

     Initial potential from superposition of free atoms

     starting charge  511.98600, renormalised to  512.00000
     Starting wfcs are  320 randomized atomic wfcs
     Checking if some PAW data can be deallocated... 

     total cpu time spent up to now is       38.5 secs

     Self-consistent Calculation

     iteration #  1     ecut=    71.00 Ry     beta= 0.30
     Davidson diagonalization with overlap
     ethr =  1.00E-02,  avg # of iterations =  3.0

     Threshold (ethr) on eigenvalues was too large:
     Diagonalizing with lowered threshold

     Davidson diagonalization with overlap
     ethr =  1.55E-04,  avg # of iterations =  6.6

     total cpu time spent up to now is      309.0 secs

     total energy              =  -10535.85870295 Ry
     estimated scf accuracy    <       1.73730094 Ry

     total magnetization       =     0.11 Bohr mag/cell
     absolute magnetization    =    44.38 Bohr mag/cell

     iteration #  2     ecut=    71.00 Ry     beta= 0.30
     Davidson diagonalization with overlap
     ethr =  3.39E-04,  avg # of iterations =  3.7

     total cpu time spent up to now is      433.5 secs

     total energy              =  -10536.10401885 Ry
     estimated scf accuracy    <       0.23089846 Ry

     total magnetization       =    -0.15 Bohr mag/cell
     absolute magnetization    =    46.52 Bohr mag/cell

     iteration #  3     ecut=    71.00 Ry     beta= 0.30
     Davidson diagonalization with overlap
     ethr =  4.51E-05,  avg # of iterations =  5.4

     total cpu time spent up to now is      575.3 secs

     total energy              =  -10535.93349019 Ry
     estimated scf accuracy    <       8.14156006 Ry

     total magnetization       =    -0.27 Bohr mag/cell
     absolute magnetization    =    45.64 Bohr mag/cell

     iteration #  4     ecut=    71.00 Ry     beta= 0.30
     Davidson diagonalization with overlap
     ethr =  4.51E-05,  avg # of iterations =  4.4

     total cpu time spent up to now is      695.2 secs

     total energy              =  -10536.16652710 Ry
     estimated scf accuracy    <       0.45985759 Ry

     total magnetization       =     0.04 Bohr mag/cell
     absolute magnetization    =    46.68 Bohr mag/cell

     iteration #  5     ecut=    71.00 Ry     beta= 0.30
     Davidson diagonalization with overlap
     ethr =  4.51E-05,  avg # of iterations =  1.3

     total cpu time spent up to now is      787.9 secs

     total energy              =  -10536.19388030 Ry
     estimated scf accuracy    <       0.19759065 Ry

     total magnetization       =    -0.11 Bohr mag/cell
     absolute magnetization    =    46.72 Bohr mag/cell

     iteration #  6     ecut=    71.00 Ry     beta= 0.30
     Davidson diagonalization with overlap
     ethr =  3.86E-05,  avg # of iterations =  2.0

     total cpu time spent up to now is      897.2 secs

     total energy              =  -10536.21149114 Ry
     estimated scf accuracy    <       0.34411137 Ry

     total magnetization       =    -0.53 Bohr mag/cell
     absolute magnetization    =    46.85 Bohr mag/cell

     iteration #  7     ecut=    71.00 Ry     beta= 0.30
     Davidson diagonalization with overlap
     ethr =  3.86E-05,  avg # of iterations =  1.1

     total cpu time spent up to now is      987.1 secs

     total energy              =  -10536.22264278 Ry
     estimated scf accuracy    <       0.05691080 Ry

     total magnetization       =    -0.07 Bohr mag/cell
     absolute magnetization    =    47.03 Bohr mag/cell

     iteration #  8     ecut=    71.00 Ry     beta= 0.30
     Davidson diagonalization with overlap
     ethr =  1.11E-05,  avg # of iterations =  1.9

     total cpu time spent up to now is     1083.7 secs

     total energy              =  -10536.22754002 Ry
     estimated scf accuracy    <       0.21219259 Ry

     total magnetization       =     0.08 Bohr mag/cell
     absolute magnetization    =    47.24 Bohr mag/cell

     iteration #  9     ecut=    71.00 Ry     beta= 0.30
     Davidson diagonalization with overlap
     ethr =  1.11E-05,  avg # of iterations =  4.6

     total cpu time spent up to now is     1223.4 secs

     total energy              =  -10536.26038831 Ry
     estimated scf accuracy    <       0.13961305 Ry

     total magnetization       =     0.21 Bohr mag/cell
     absolute magnetization    =    47.93 Bohr mag/cell

     iteration # 10     ecut=    71.00 Ry     beta= 0.30
     Davidson diagonalization with overlap
     ethr =  1.11E-05,  avg # of iterations =  1.5

     total cpu time spent up to now is     1317.9 secs

     total energy              =  -10536.23521338 Ry
     estimated scf accuracy    <       0.13360729 Ry

     total magnetization       =    -0.11 Bohr mag/cell
     absolute magnetization    =    48.14 Bohr mag/cell

     iteration # 11     ecut=    71.00 Ry     beta= 0.30
     Davidson diagonalization with overlap
     ethr =  1.11E-05,  avg # of iterations =  4.0

     total cpu time spent up to now is     1444.1 secs

     total energy              =  -10536.24745137 Ry
     estimated scf accuracy    <       0.04463844 Ry

     total magnetization       =    -0.22 Bohr mag/cell
     absolute magnetization    =    48.35 Bohr mag/cell

     iteration # 12     ecut=    71.00 Ry     beta= 0.30
     Davidson diagonalization with overlap
     ethr =  8.72E-06,  avg # of iterations =  2.1

     total cpu time spent up to now is     1544.7 secs

     total energy              =  -10536.25030358 Ry
     estimated scf accuracy    <       0.00138526 Ry

     total magnetization       =    -0.02 Bohr mag/cell
     absolute magnetization    =    48.39 Bohr mag/cell

     iteration # 13     ecut=    71.00 Ry     beta= 0.30
     Davidson diagonalization with overlap
     ethr =  2.71E-07,  avg # of iterations =  5.8

     total cpu time spent up to now is     1690.4 secs

     total energy              =  -10536.25057682 Ry
     estimated scf accuracy    <       0.01165753 Ry

     total magnetization       =     0.10 Bohr mag/cell
     absolute magnetization    =    48.55 Bohr mag/cell

     iteration # 14     ecut=    71.00 Ry     beta= 0.30
     Davidson diagonalization with overlap
     ethr =  2.71E-07,  avg # of iterations =  2.3

     total cpu time spent up to now is     1797.1 secs

     total energy              =  -10536.25111522 Ry
     estimated scf accuracy    <       0.00065011 Ry

     total magnetization       =    -0.01 Bohr mag/cell
     absolute magnetization    =    48.59 Bohr mag/cell

     iteration # 15     ecut=    71.00 Ry     beta= 0.30
     Davidson diagonalization with overlap
     ethr =  1.27E-07,  avg # of iterations =  2.1

     total cpu time spent up to now is     1898.7 secs

     total energy              =  -10536.25117738 Ry
     estimated scf accuracy    <       0.00061565 Ry

     total magnetization       =    -0.02 Bohr mag/cell
     absolute magnetization    =    48.71 Bohr mag/cell

     iteration # 16     ecut=    71.00 Ry     beta= 0.30
     Davidson diagonalization with overlap
     ethr =  1.20E-07,  avg # of iterations =  1.1

     total cpu time spent up to now is     1988.6 secs

     total energy              =  -10536.25130597 Ry
     estimated scf accuracy    <       0.00074709 Ry

     total magnetization       =    -0.02 Bohr mag/cell
     absolute magnetization    =    48.75 Bohr mag/cell

     iteration # 17     ecut=    71.00 Ry     beta= 0.30
     Davidson diagonalization with overlap
     ethr =  1.20E-07,  avg # of iterations =  2.6

     total cpu time spent up to now is     2092.4 secs

     total energy              =  -10536.25133773 Ry
     estimated scf accuracy    <       0.00587793 Ry

     total magnetization       =    -0.02 Bohr mag/cell
     absolute magnetization    =    48.88 Bohr mag/cell

     iteration # 18     ecut=    71.00 Ry     beta= 0.30
     Davidson diagonalization with overlap
     ethr =  1.20E-07,  avg # of iterations =  2.7

     total cpu time spent up to now is     2200.1 secs

     total energy              =  -10536.25141990 Ry
     estimated scf accuracy    <       0.00119171 Ry

     total magnetization       =    -0.03 Bohr mag/cell
     absolute magnetization    =    49.15 Bohr mag/cell

     iteration # 19     ecut=    71.00 Ry     beta= 0.30
     Davidson diagonalization with overlap
     ethr =  1.20E-07,  avg # of iterations =  2.0

     total cpu time spent up to now is     2301.0 secs

     total energy              =  -10536.25147117 Ry
     estimated scf accuracy    <       0.00151072 Ry

     total magnetization       =     0.01 Bohr mag/cell
     absolute magnetization    =    49.10 Bohr mag/cell

     iteration # 20     ecut=    71.00 Ry     beta= 0.30
     Davidson diagonalization with overlap
     ethr =  1.20E-07,  avg # of iterations =  1.7

     total cpu time spent up to now is     2398.5 secs

     total energy              =  -10536.25154618 Ry
     estimated scf accuracy    <       0.00040579 Ry

     total magnetization       =     0.01 Bohr mag/cell
     absolute magnetization    =    49.16 Bohr mag/cell

     iteration # 21     ecut=    71.00 Ry     beta= 0.30
     Davidson diagonalization with overlap
     ethr =  7.93E-08,  avg # of iterations =  1.8

     total cpu time spent up to now is     2495.4 secs

     total energy              =  -10536.25155664 Ry
     estimated scf accuracy    <       0.00100851 Ry

     total magnetization       =    -0.03 Bohr mag/cell
     absolute magnetization    =    49.20 Bohr mag/cell

     iteration # 22     ecut=    71.00 Ry     beta= 0.30
     Davidson diagonalization with overlap
     ethr =  7.93E-08,  avg # of iterations =  1.5

     total cpu time spent up to now is     2590.9 secs

     total energy              =  -10536.25157416 Ry
     estimated scf accuracy    <       0.00059232 Ry

     total magnetization       =     0.01 Bohr mag/cell
     absolute magnetization    =    49.30 Bohr mag/cell

     iteration # 23     ecut=    71.00 Ry     beta= 0.30
     Davidson diagonalization with overlap
     ethr =  7.93E-08,  avg # of iterations =  1.1

     total cpu time spent up to now is     2680.9 secs

     total energy              =  -10536.25159692 Ry
     estimated scf accuracy    <       0.00020258 Ry

     total magnetization       =    -0.02 Bohr mag/cell
     absolute magnetization    =    49.33 Bohr mag/cell

     iteration # 24     ecut=    71.00 Ry     beta= 0.30
     Davidson diagonalization with overlap
     ethr =  3.96E-08,  avg # of iterations =  1.2

     total cpu time spent up to now is     2771.8 secs

     total energy              =  -10536.25161600 Ry
     estimated scf accuracy    <       0.00007424 Ry

     total magnetization       =    -0.00 Bohr mag/cell
     absolute magnetization    =    49.36 Bohr mag/cell

     iteration # 25     ecut=    71.00 Ry     beta= 0.30
     Davidson diagonalization with overlap
     ethr =  1.45E-08,  avg # of iterations =  2.0

     total cpu time spent up to now is     2871.7 secs

     total energy              =  -10536.25162626 Ry
     estimated scf accuracy    <       0.00006178 Ry

     total magnetization       =     0.00 Bohr mag/cell
     absolute magnetization    =    49.41 Bohr mag/cell

     iteration # 26     ecut=    71.00 Ry     beta= 0.30
     Davidson diagonalization with overlap
     ethr =  1.21E-08,  avg # of iterations =  2.8

     total cpu time spent up to now is     2976.0 secs

     total energy              =  -10536.25163031 Ry
     estimated scf accuracy    <       0.00002617 Ry

     total magnetization       =    -0.01 Bohr mag/cell
     absolute magnetization    =    49.47 Bohr mag/cell

     iteration # 27     ecut=    71.00 Ry     beta= 0.30
     Davidson diagonalization with overlap
     ethr =  5.11E-09,  avg # of iterations =  3.6

     total cpu time spent up to now is     3083.4 secs

     total energy              =  -10536.25163152 Ry
     estimated scf accuracy    <       0.00005923 Ry

     total magnetization       =    -0.01 Bohr mag/cell
     absolute magnetization    =    49.49 Bohr mag/cell

     iteration # 28     ecut=    71.00 Ry     beta= 0.30
     Davidson diagonalization with overlap
     ethr =  5.11E-09,  avg # of iterations =  1.7

     total cpu time spent up to now is     3179.1 secs

     total energy              =  -10536.25163365 Ry
     estimated scf accuracy    <       0.00005415 Ry

     total magnetization       =    -0.00 Bohr mag/cell
     absolute magnetization    =    49.49 Bohr mag/cell

     iteration # 29     ecut=    71.00 Ry     beta= 0.30
     Davidson diagonalization with overlap
     ethr =  5.11E-09,  avg # of iterations =  1.4

     total cpu time spent up to now is     3272.6 secs

     total energy              =  -10536.25163446 Ry
     estimated scf accuracy    <       0.00004328 Ry

     total magnetization       =    -0.00 Bohr mag/cell
     absolute magnetization    =    49.50 Bohr mag/cell

     iteration # 30     ecut=    71.00 Ry     beta= 0.30
     Davidson diagonalization with overlap
     ethr =  5.11E-09,  avg # of iterations =  1.0

     total cpu time spent up to now is     3362.1 secs

     total energy              =  -10536.25163645 Ry
     estimated scf accuracy    <       0.00002150 Ry

     total magnetization       =    -0.00 Bohr mag/cell
     absolute magnetization    =    49.48 Bohr mag/cell

     iteration # 31     ecut=    71.00 Ry     beta= 0.30
     Davidson diagonalization with overlap
     ethr =  4.20E-09,  avg # of iterations =  1.0

     total cpu time spent up to now is     3451.3 secs

     total energy              =  -10536.25163617 Ry
     estimated scf accuracy    <       0.00001811 Ry

     total magnetization       =    -0.00 Bohr mag/cell
     absolute magnetization    =    49.48 Bohr mag/cell

     iteration # 32     ecut=    71.00 Ry     beta= 0.30
     Davidson diagonalization with overlap
     ethr =  3.54E-09,  avg # of iterations =  1.1

     total cpu time spent up to now is     3541.1 secs

     total energy              =  -10536.25163641 Ry
     estimated scf accuracy    <       0.00005862 Ry

     total magnetization       =    -0.00 Bohr mag/cell
     absolute magnetization    =    49.50 Bohr mag/cell

     iteration # 33     ecut=    71.00 Ry     beta= 0.30
     Davidson diagonalization with overlap
     ethr =  3.54E-09,  avg # of iterations =  1.0

     total cpu time spent up to now is     3630.8 secs

     total energy              =  -10536.25163803 Ry
     estimated scf accuracy    <       0.00000349 Ry

     total magnetization       =    -0.01 Bohr mag/cell
     absolute magnetization    =    49.50 Bohr mag/cell

     iteration # 34     ecut=    71.00 Ry     beta= 0.30
     Davidson diagonalization with overlap
     ethr =  6.81E-10,  avg # of iterations =  1.4

     total cpu time spent up to now is     3724.2 secs

     total energy              =  -10536.25163829 Ry
     estimated scf accuracy    <       0.00000151 Ry

     total magnetization       =    -0.00 Bohr mag/cell
     absolute magnetization    =    49.50 Bohr mag/cell

     iteration # 35     ecut=    71.00 Ry     beta= 0.30
     Davidson diagonalization with overlap
     ethr =  2.96E-10,  avg # of iterations =  2.0

     total cpu time spent up to now is     3822.9 secs

     total energy              =  -10536.25163844 Ry
     estimated scf accuracy    <       0.00000440 Ry

     total magnetization       =    -0.01 Bohr mag/cell
     absolute magnetization    =    49.50 Bohr mag/cell

     iteration # 36     ecut=    71.00 Ry     beta= 0.30
     Davidson diagonalization with overlap
     ethr =  2.96E-10,  avg # of iterations =  1.8

     total cpu time spent up to now is     3919.2 secs

     total energy              =  -10536.25163862 Ry
     estimated scf accuracy    <       0.00000337 Ry

     total magnetization       =    -0.00 Bohr mag/cell
     absolute magnetization    =    49.51 Bohr mag/cell

     iteration # 37     ecut=    71.00 Ry     beta= 0.30
     Davidson diagonalization with overlap
     ethr =  2.96E-10,  avg # of iterations =  1.5

     total cpu time spent up to now is     4015.0 secs

     total energy              =  -10536.25163885 Ry
     estimated scf accuracy    <       0.00000109 Ry

     total magnetization       =    -0.00 Bohr mag/cell
     absolute magnetization    =    49.51 Bohr mag/cell

     iteration # 38     ecut=    71.00 Ry     beta= 0.30
     Davidson diagonalization with overlap
     ethr =  2.13E-10,  avg # of iterations =  2.4

     total cpu time spent up to now is     4115.7 secs

     total energy              =  -10536.25163895 Ry
     estimated scf accuracy    <       0.00000088 Ry

     total magnetization       =    -0.00 Bohr mag/cell
     absolute magnetization    =    49.51 Bohr mag/cell

     iteration # 39     ecut=    71.00 Ry     beta= 0.30
     Davidson diagonalization with overlap
     ethr =  1.73E-10,  avg # of iterations =  2.1

     total cpu time spent up to now is     4214.7 secs

     total energy              =  -10536.25163892 Ry
     estimated scf accuracy    <       0.00000207 Ry

     total magnetization       =    -0.00 Bohr mag/cell
     absolute magnetization    =    49.52 Bohr mag/cell

     iteration # 40     ecut=    71.00 Ry     beta= 0.30
     Davidson diagonalization with overlap
     ethr =  1.73E-10,  avg # of iterations =  1.3

     total cpu time spent up to now is     4307.3 secs

     total energy              =  -10536.25163898 Ry
     estimated scf accuracy    <       0.00000132 Ry

     total magnetization       =    -0.00 Bohr mag/cell
     absolute magnetization    =    49.52 Bohr mag/cell

     iteration # 41     ecut=    71.00 Ry     beta= 0.30
     Davidson diagonalization with overlap
     ethr =  1.73E-10,  avg # of iterations =  1.1

     total cpu time spent up to now is     4397.6 secs

     total energy              =  -10536.25163903 Ry
     estimated scf accuracy    <       0.00000069 Ry

     total magnetization       =    -0.00 Bohr mag/cell
     absolute magnetization    =    49.52 Bohr mag/cell

     iteration # 42     ecut=    71.00 Ry     beta= 0.30
     Davidson diagonalization with overlap
     ethr =  1.35E-10,  avg # of iterations =  1.0

     total cpu time spent up to now is     4487.0 secs

     total energy              =  -10536.25163905 Ry
     estimated scf accuracy    <       0.00000066 Ry

     total magnetization       =    -0.00 Bohr mag/cell
     absolute magnetization    =    49.52 Bohr mag/cell

     iteration # 43     ecut=    71.00 Ry     beta= 0.30
     Davidson diagonalization with overlap
     ethr =  1.30E-10,  avg # of iterations =  1.1

     total cpu time spent up to now is     4577.1 secs

     total energy              =  -10536.25163909 Ry
     estimated scf accuracy    <       0.00000180 Ry

     total magnetization       =    -0.00 Bohr mag/cell
     absolute magnetization    =    49.52 Bohr mag/cell

     iteration # 44     ecut=    71.00 Ry     beta= 0.30
     Davidson diagonalization with overlap
     ethr =  1.30E-10,  avg # of iterations =  1.0

     total cpu time spent up to now is     4666.5 secs

     total energy              =  -10536.25163916 Ry
     estimated scf accuracy    <       0.00000011 Ry

     total magnetization       =    -0.00 Bohr mag/cell
     absolute magnetization    =    49.52 Bohr mag/cell

     iteration # 45     ecut=    71.00 Ry     beta= 0.30
     Davidson diagonalization with overlap
     ethr =  2.11E-11,  avg # of iterations =  2.2

     total cpu time spent up to now is     4768.0 secs

     total energy              =  -10536.25163916 Ry
     estimated scf accuracy    <       0.00000035 Ry

     total magnetization       =    -0.00 Bohr mag/cell
     absolute magnetization    =    49.52 Bohr mag/cell

     iteration # 46     ecut=    71.00 Ry     beta= 0.30
     Davidson diagonalization with overlap
     ethr =  2.11E-11,  avg # of iterations =  2.1

     total cpu time spent up to now is     4868.7 secs

     total energy              =  -10536.25163915 Ry
     estimated scf accuracy    <       0.00000047 Ry

     total magnetization       =    -0.00 Bohr mag/cell
     absolute magnetization    =    49.52 Bohr mag/cell

     iteration # 47     ecut=    71.00 Ry     beta= 0.30
     Davidson diagonalization with overlap
     ethr =  2.11E-11,  avg # of iterations =  1.1

     total cpu time spent up to now is     4958.5 secs

     total energy              =  -10536.25163919 Ry
     estimated scf accuracy    <       0.00000008 Ry

     total magnetization       =    -0.00 Bohr mag/cell
     absolute magnetization    =    49.52 Bohr mag/cell

     iteration # 48     ecut=    71.00 Ry     beta= 0.30
     Davidson diagonalization with overlap
     ethr =  1.53E-11,  avg # of iterations =  2.0

     total cpu time spent up to now is     5058.8 secs

     total energy              =  -10536.25163921 Ry
     estimated scf accuracy    <       0.00000014 Ry

     total magnetization       =    -0.00 Bohr mag/cell
     absolute magnetization    =    49.52 Bohr mag/cell

     iteration # 49     ecut=    71.00 Ry     beta= 0.30
     Davidson diagonalization with overlap
     ethr =  1.53E-11,  avg # of iterations =  1.4

     total cpu time spent up to now is     5151.7 secs

     total energy              =  -10536.25163920 Ry
     estimated scf accuracy    <       0.00000009 Ry

     total magnetization       =    -0.00 Bohr mag/cell
     absolute magnetization    =    49.52 Bohr mag/cell

     iteration # 50     ecut=    71.00 Ry     beta= 0.30
     Davidson diagonalization with overlap
     ethr =  1.53E-11,  avg # of iterations =  4.4

     total cpu time spent up to now is     5275.3 secs

     total energy              =  -10536.25163929 Ry
     estimated scf accuracy    <       0.00000008 Ry

     total magnetization       =    -0.00 Bohr mag/cell
     absolute magnetization    =    49.52 Bohr mag/cell

     iteration # 51     ecut=    71.00 Ry     beta= 0.30
     Davidson diagonalization with overlap
     ethr =  1.48E-11,  avg # of iterations =  3.1

     total cpu time spent up to now is     5387.5 secs

     total energy              =  -10536.25163932 Ry
     estimated scf accuracy    <       0.00000006 Ry

     total magnetization       =    -0.00 Bohr mag/cell
     absolute magnetization    =    49.52 Bohr mag/cell

     iteration # 52     ecut=    71.00 Ry     beta= 0.30
     Davidson diagonalization with overlap
     ethr =  1.13E-11,  avg # of iterations =  1.3

     total cpu time spent up to now is     5480.3 secs

     total energy              =  -10536.25163931 Ry
     estimated scf accuracy    <       0.00000013 Ry

     total magnetization       =    -0.00 Bohr mag/cell
     absolute magnetization    =    49.52 Bohr mag/cell

     iteration # 53     ecut=    71.00 Ry     beta= 0.30
     Davidson diagonalization with overlap
     ethr =  1.13E-11,  avg # of iterations =  1.7

     total cpu time spent up to now is     5576.8 secs

     total energy              =  -10536.25163931 Ry
     estimated scf accuracy    <       0.00000016 Ry

     total magnetization       =    -0.00 Bohr mag/cell
     absolute magnetization    =    49.52 Bohr mag/cell

     iteration # 54     ecut=    71.00 Ry     beta= 0.30
     Davidson diagonalization with overlap
     ethr =  1.13E-11,  avg # of iterations =  3.5

     total cpu time spent up to now is     5689.1 secs

     total energy              =  -10536.25163935 Ry
     estimated scf accuracy    <       0.00000003 Ry

     total magnetization       =    -0.00 Bohr mag/cell
     absolute magnetization    =    49.52 Bohr mag/cell

     iteration # 55     ecut=    71.00 Ry     beta= 0.30
     Davidson diagonalization with overlap
     ethr =  5.43E-12,  avg # of iterations =  4.4

     total cpu time spent up to now is     5808.3 secs

     total energy              =  -10536.25163936 Ry
     estimated scf accuracy    <       0.00000002 Ry

     total magnetization       =    -0.00 Bohr mag/cell
     absolute magnetization    =    49.52 Bohr mag/cell

     iteration # 56     ecut=    71.00 Ry     beta= 0.30
     Davidson diagonalization with overlap
     ethr =  4.14E-12,  avg # of iterations =  3.7

     total cpu time spent up to now is     5923.1 secs

     total energy              =  -10536.25163937 Ry
     estimated scf accuracy    <       0.00000010 Ry

     total magnetization       =    -0.00 Bohr mag/cell
     absolute magnetization    =    49.52 Bohr mag/cell

     iteration # 57     ecut=    71.00 Ry     beta= 0.30
     Davidson diagonalization with overlap
     ethr =  4.14E-12,  avg # of iterations =  2.1

     total cpu time spent up to now is     6023.8 secs

     total energy              =  -10536.25163937 Ry
     estimated scf accuracy    <       0.00000004 Ry

     total magnetization       =    -0.00 Bohr mag/cell
     absolute magnetization    =    49.52 Bohr mag/cell

     iteration # 58     ecut=    71.00 Ry     beta= 0.30
     Davidson diagonalization with overlap
     ethr =  4.14E-12,  avg # of iterations =  3.3

     total cpu time spent up to now is     6134.2 secs

     total energy              =  -10536.25163938 Ry
     estimated scf accuracy    <       0.00000005 Ry

     total magnetization       =    -0.00 Bohr mag/cell
     absolute magnetization    =    49.52 Bohr mag/cell

     iteration # 59     ecut=    71.00 Ry     beta= 0.30
     Davidson diagonalization with overlap
     ethr =  4.14E-12,  avg # of iterations =  3.8

     total cpu time spent up to now is     6248.8 secs

     total energy              =  -10536.25163938 Ry
     estimated scf accuracy    <       0.00000001 Ry

     total magnetization       =    -0.00 Bohr mag/cell
     absolute magnetization    =    49.52 Bohr mag/cell

     iteration # 60     ecut=    71.00 Ry     beta= 0.30
     Davidson diagonalization with overlap
     ethr =  2.10E-12,  avg # of iterations =  4.9

     total cpu time spent up to now is     6382.9 secs

     total energy              =  -10536.25163939 Ry
     estimated scf accuracy    <       0.00000002 Ry

     total magnetization       =    -0.00 Bohr mag/cell
     absolute magnetization    =    49.52 Bohr mag/cell

     iteration # 61     ecut=    71.00 Ry     beta= 0.30
     Davidson diagonalization with overlap
     ethr =  2.10E-12,  avg # of iterations =  1.7

     total cpu time spent up to now is     6478.7 secs

     total energy              =  -10536.25163938 Ry
     estimated scf accuracy    <       0.00000002 Ry

     total magnetization       =    -0.00 Bohr mag/cell
     absolute magnetization    =    49.52 Bohr mag/cell

     iteration # 62     ecut=    71.00 Ry     beta= 0.30
     Davidson diagonalization with overlap
     ethr =  2.10E-12,  avg # of iterations =  3.9
 
     Magnetic moment per site:
     atom:    1    charge:   14.3989    magn:    1.4908    constr:    0.0000
     atom:    2    charge:   14.3984    magn:   -1.4920    constr:    0.0000
     atom:    3    charge:   14.3980    magn:    1.4926    constr:    0.0000
     atom:    4    charge:   14.3984    magn:   -1.4920    constr:    0.0000
     atom:    5    charge:   14.3989    magn:    1.4913    constr:    0.0000
     atom:    6    charge:   14.3984    magn:   -1.4918    constr:    0.0000
     atom:    7    charge:   14.3980    magn:    1.4926    constr:    0.0000
     atom:    8    charge:   14.3984    magn:   -1.4920    constr:    0.0000
     atom:    9    charge:   14.3989    magn:    1.4914    constr:    0.0000
     atom:   10    charge:   14.3984    magn:   -1.4920    constr:    0.0000
     atom:   11    charge:   14.3980    magn:    1.4924    constr:    0.0000
     atom:   12    charge:   14.3984    magn:   -1.4920    constr:    0.0000
     atom:   13    charge:   14.3989    magn:    1.4913    constr:    0.0000
     atom:   14    charge:   14.3984    magn:   -1.4918    constr:    0.0000
     atom:   15    charge:   14.3980    magn:    1.4924    constr:    0.0000
     atom:   16    charge:   14.3984    magn:   -1.4920    constr:    0.0000
     atom:   17    charge:   14.3989    magn:    1.4913    constr:    0.0000
     atom:   18    charge:   14.3984    magn:   -1.4920    constr:    0.0000
     atom:   19    charge:   14.3980    magn:    1.4926    constr:    0.0000
     atom:   20    charge:   14.3984    magn:   -1.4918    constr:    0.0000
     atom:   21    charge:   14.3988    magn:    1.4913    constr:    0.0000
     atom:   22    charge:   14.3984    magn:   -1.4918    constr:    0.0000
     atom:   23    charge:   14.3980    magn:    1.4926    constr:    0.0000
     atom:   24    charge:   14.3984    magn:   -1.4918    constr:    0.0000
     atom:   25    charge:   14.3989    magn:    1.4913    constr:    0.0000
     atom:   26    charge:   14.3984    magn:   -1.4920    constr:    0.0000
     atom:   27    charge:   14.3980    magn:    1.4924    constr:    0.0000
     atom:   28    charge:   14.3984    magn:   -1.4918    constr:    0.0000
     atom:   29    charge:   14.3989    magn:    1.4911    constr:    0.0000
     atom:   30    charge:   14.3984    magn:   -1.4918    constr:    0.0000
     atom:   31    charge:   14.3980    magn:    1.4924    constr:    0.0000
     atom:   32    charge:   14.3984    magn:   -1.4918    constr:    0.0000

     total cpu time spent up to now is     6598.3 secs

     End of self-consistent calculation

     Number of k-points >= 100: set verbosity='high' to print the bands.

     the Fermi energy is    20.0791 ev

!    total energy              =  -10536.25163939 Ry

     total all-electron energy =    -81457.740697 Ry
     estimated scf accuracy    <          6.5E-09 Ry
     smearing contrib. (-TS)   =       0.01197014 Ry
     internal energy E=F+TS    =  -10536.26360953 Ry

     The total energy is F=E-TS. E is the sum of the following terms:
     one-electron contribution =   -3297.39049642 Ry
     hartree contribution      =    1998.27140614 Ry
     xc contribution           =    -886.90390384 Ry
     ewald contribution        =   -5700.67984722 Ry
     one-center paw contrib.   =   -2649.56076819 Ry

     total magnetization       =    -0.00 Bohr mag/cell
     absolute magnetization    =    49.52 Bohr mag/cell

     convergence has been achieved in  62 iterations

     Forces acting on atoms (cartesian axes, Ry/au):

     atom    1 type  1   force =     0.00000000    0.00000000    0.00000000
     atom    2 type  2   force =     0.00000198   -0.00000300    0.00000000
     atom    3 type  1   force =     0.00000252    0.00000000    0.00000252
     atom    4 type  2   force =     0.00000000   -0.00000300    0.00000198
     atom    5 type  1   force =     0.00000000    0.00000000    0.00000000
     atom    6 type  2   force =     0.00000427   -0.00000120    0.00000000
     atom    7 type  1   force =     0.00000252    0.00000000   -0.00000252
     atom    8 type  2   force =     0.00000000   -0.00000300   -0.00000198
     atom    9 type  1   force =     0.00000000    0.00000000    0.00000000
     atom   10 type  2   force =     0.00000198    0.00000300    0.00000000
     atom   11 type  1   force =     0.00000510   -0.00000000    0.00000510
     atom   12 type  2   force =     0.00000000    0.00000300    0.00000198
     atom   13 type  1   force =     0.00000000    0.00000000    0.00000000
     atom   14 type  2   force =     0.00000427    0.00000120    0.00000000
     atom   15 type  1   force =     0.00000510    0.00000000   -0.00000510
     atom   16 type  2   force =     0.00000000    0.00000300   -0.00000198
     atom   17 type  1   force =     0.00000000    0.00000000    0.00000000
     atom   18 type  2   force =    -0.00000198   -0.00000300    0.00000000
     atom   19 type  1   force =    -0.00000252    0.00000000    0.00000252
     atom   20 type  2   force =     0.00000000   -0.00000120    0.00000427
     atom   21 type  1   force =     0.00000000    0.00000000    0.00000000
     atom   22 type  2   force =    -0.00000427   -0.00000120    0.00000000
     atom   23 type  1   force =    -0.00000252    0.00000000   -0.00000252
     atom   24 type  2   force =     0.00000000   -0.00000120   -0.00000427
     atom   25 type  1   force =     0.00000000    0.00000000    0.00000000
     atom   26 type  2   force =    -0.00000198    0.00000300    0.00000000
     atom   27 type  1   force =    -0.00000510   -0.00000000    0.00000510
     atom   28 type  2   force =     0.00000000    0.00000120    0.00000427
     atom   29 type  1   force =     0.00000000    0.00000000    0.00000000
     atom   30 type  2   force =    -0.00000427    0.00000120    0.00000000
     atom   31 type  1   force =    -0.00000510    0.00000000   -0.00000510
     atom   32 type  2   force =     0.00000000    0.00000120   -0.00000427

     Total force =     0.000023     Total SCF correction =     0.000430
     SCF correction compared to forces is large: reduce conv_thr to get better values


     Computing stress (Cartesian axis) and pressure

          total   stress  (Ry/bohr**3)                   (kbar)     P=       -4.80
  -0.00004919   0.00000000   0.00000000           -7.24        0.00        0.00
   0.00000000   0.00000042   0.00000000            0.00        0.06        0.00
   0.00000000   0.00000000  -0.00004919            0.00        0.00       -7.24


     BFGS Geometry Optimization
     Energy error            =      0.0E+00
     Gradient error          =      5.1E-06
     Cell gradient error     =      4.9E-05


     number of scf cycles    =   1
     number of bfgs steps    =   0

     enthalpy new            =  -10536.2516393935 Ry

     new trust radius        =       0.0117635435 bohr
     new conv_thr            =       0.0000000100 Ry

     new unit-cell volume =   2282.06015 a.u.^3 (   338.16642 Ang^3 )
     density =      8.77512 g/cm^3

CELL_PARAMETERS (alat= 12.95714297)
   0.998770262   0.000000000   0.000000000
   0.000000000   1.051642499   0.000000000
   0.000000000   0.000000000   0.998770262

ATOMIC_POSITIONS (crystal)
Fe1           0.0000000000        0.0000000000        0.0000000000
Fe2           0.2500001529        0.2499997797        0.0000000000
Fe1           0.2500001948        0.0000000000        0.2500001948
Fe2           0.0000000000        0.2499997797        0.2500001529
Fe1           0.0000000000        0.0000000000        0.5000000000
Fe2           0.2500003293        0.2499999116        0.5000000000
Fe1           0.2500001948        0.0000000000        0.7499998052
Fe2           0.0000000000        0.2499997797        0.7499998471
Fe1           0.0000000000        0.5000000000        0.0000000000
Fe2           0.2500001529        0.7500002203        0.0000000000
Fe1           0.2500003932        0.5000000000        0.2500003932
Fe2           0.0000000000        0.7500002203        0.2500001529
Fe1           0.0000000000        0.5000000000        0.5000000000
Fe2           0.2500003293        0.7500000884        0.5000000000
Fe1           0.2500003932        0.5000000000        0.7499996068
Fe2           0.0000000000        0.7500002203        0.7499998471
Fe1           0.5000000000        0.0000000000        0.0000000000
Fe2           0.7499998471        0.2499997797        0.0000000000
Fe1           0.7499998052        0.0000000000        0.2500001948
Fe2           0.5000000000        0.2499999116        0.2500003293
Fe1           0.5000000000        0.0000000000        0.5000000000
Fe2           0.7499996707        0.2499999116        0.5000000000
Fe1           0.7499998052        0.0000000000        0.7499998052
Fe2           0.5000000000        0.2499999116        0.7499996707
Fe1           0.5000000000        0.5000000000        0.0000000000
Fe2           0.7499998471        0.7500002203        0.0000000000
Fe1           0.7499996068        0.5000000000        0.2500003932
Fe2           0.5000000000        0.7500000884        0.2500003293
Fe1           0.5000000000        0.5000000000        0.5000000000
Fe2           0.7499996707        0.7500000884        0.5000000000
Fe1           0.7499996068        0.5000000000        0.7499996068
Fe2           0.5000000000        0.7500000884        0.7499996707



     Writing output data file /scratch/bxp912/fefccrelax.save/
     NEW-OLD atomic charge density approx. for the potential

     Check: negative core charge=   -0.000006
     extrapolated charge  510.74383, renormalised to  512.00000
     Generating pointlists ...

     total cpu time spent up to now is     6711.8 secs

     Self-consistent Calculation

     iteration #  1     ecut=    71.00 Ry     beta= 0.30
     Davidson diagonalization with overlap
     ethr =  1.00E-06,  avg # of iterations =  6.1

     total cpu time spent up to now is     6906.1 secs

     total energy              =  -10536.16173541 Ry
     estimated scf accuracy    <       0.11931961 Ry

     total magnetization       =    -0.00 Bohr mag/cell
     absolute magnetization    =    49.85 Bohr mag/cell

     iteration #  2     ecut=    71.00 Ry     beta= 0.30
     Davidson diagonalization with overlap
     ethr =  2.33E-05,  avg # of iterations =  5.9

     total cpu time spent up to now is     7092.5 secs

     total energy              =  -10536.25285414 Ry
     estimated scf accuracy    <       0.15875330 Ry

     total magnetization       =     0.00 Bohr mag/cell
     absolute magnetization    =    49.09 Bohr mag/cell

     iteration #  3     ecut=    71.00 Ry     beta= 0.30
     Davidson diagonalization with overlap
     ethr =  2.33E-05,  avg # of iterations =  2.0

     total cpu time spent up to now is     7192.3 secs

     total energy              =  -10536.25770651 Ry
     estimated scf accuracy    <       0.06088645 Ry

     total magnetization       =    -0.01 Bohr mag/cell
     absolute magnetization    =    49.32 Bohr mag/cell

     iteration #  4     ecut=    71.00 Ry     beta= 0.30
     Davidson diagonalization with overlap
     ethr =  1.19E-05,  avg # of iterations =  2.0

     total cpu time spent up to now is     7291.3 secs

     total energy              =  -10536.25669640 Ry
     estimated scf accuracy    <       0.03983565 Ry

     total magnetization       =    -0.00 Bohr mag/cell
     absolute magnetization    =    49.31 Bohr mag/cell

     iteration #  5     ecut=    71.00 Ry     beta= 0.30
     Davidson diagonalization with overlap
     ethr =  7.78E-06,  avg # of iterations =  1.1

     total cpu time spent up to now is     7381.6 secs

     total energy              =  -10536.25508825 Ry
     estimated scf accuracy    <       0.02800839 Ry

     total magnetization       =     0.00 Bohr mag/cell
     absolute magnetization    =    49.33 Bohr mag/cell

     iteration #  6     ecut=    71.00 Ry     beta= 0.30
     Davidson diagonalization with overlap
     ethr =  5.47E-06,  avg # of iterations =  1.3

     total cpu time spent up to now is     7473.2 secs

     total energy              =  -10536.25487826 Ry
     estimated scf accuracy    <       0.01858621 Ry

     total magnetization       =     0.00 Bohr mag/cell
     absolute magnetization    =    49.35 Bohr mag/cell

     iteration #  7     ecut=    71.00 Ry     beta= 0.30
     Davidson diagonalization with overlap
     ethr =  3.63E-06,  avg # of iterations =  1.2

     total cpu time spent up to now is     7563.8 secs

     total energy              =  -10536.25374732 Ry
     estimated scf accuracy    <       0.01590758 Ry

     total magnetization       =    -0.00 Bohr mag/cell
     absolute magnetization    =    49.36 Bohr mag/cell

     iteration #  8     ecut=    71.00 Ry     beta= 0.30
     Davidson diagonalization with overlap
     ethr =  3.11E-06,  avg # of iterations =  1.5

     total cpu time spent up to now is     7658.8 secs

     total energy              =  -10536.25386176 Ry
     estimated scf accuracy    <       0.01059134 Ry

     total magnetization       =    -0.00 Bohr mag/cell
     absolute magnetization    =    49.37 Bohr mag/cell

     iteration #  9     ecut=    71.00 Ry     beta= 0.30
     Davidson diagonalization with overlap
     ethr =  2.07E-06,  avg # of iterations =  1.0

     total cpu time spent up to now is     7747.7 secs

     total energy              =  -10536.24983242 Ry
     estimated scf accuracy    <       0.01016497 Ry

     total magnetization       =    -0.00 Bohr mag/cell
     absolute magnetization    =    49.37 Bohr mag/cell

     iteration # 10     ecut=    71.00 Ry     beta= 0.30
     Davidson diagonalization with overlap
     ethr =  1.99E-06,  avg # of iterations =  4.2

     total cpu time spent up to now is     7873.6 secs

     total energy              =  -10536.25165773 Ry
     estimated scf accuracy    <       0.00004425 Ry

     total magnetization       =    -0.00 Bohr mag/cell
     absolute magnetization    =    49.44 Bohr mag/cell

     iteration # 11     ecut=    71.00 Ry     beta= 0.30
     Davidson diagonalization with overlap
     ethr =  8.64E-09,  avg # of iterations =  7.6

     total cpu time spent up to now is     8097.9 secs

     total energy              =  -10536.25217489 Ry
     estimated scf accuracy    <       0.00080975 Ry

     total magnetization       =    -0.00 Bohr mag/cell
     absolute magnetization    =    49.45 Bohr mag/cell

     iteration # 12     ecut=    71.00 Ry     beta= 0.30
     Davidson diagonalization with overlap
     ethr =  8.64E-09,  avg # of iterations =  5.9

     total cpu time spent up to now is     8276.1 secs

     total energy              =  -10536.25171157 Ry
     estimated scf accuracy    <       0.00190491 Ry

     total magnetization       =    -0.00 Bohr mag/cell
     absolute magnetization    =    49.46 Bohr mag/cell

     iteration # 13     ecut=    71.00 Ry     beta= 0.30
     Davidson diagonalization with overlap
     ethr =  8.64E-09,  avg # of iterations =  6.1

     total cpu time spent up to now is     8471.1 secs

     total energy              =  -10536.25180148 Ry
     estimated scf accuracy    <       0.00024542 Ry

     total magnetization       =    -0.00 Bohr mag/cell
     absolute magnetization    =    49.44 Bohr mag/cell

     iteration # 14     ecut=    71.00 Ry     beta= 0.30
     Davidson diagonalization with overlap
     ethr =  8.64E-09,  avg # of iterations =  2.0

     total cpu time spent up to now is     8580.8 secs

     total energy              =  -10536.25182937 Ry
     estimated scf accuracy    <       0.00013535 Ry

     total magnetization       =     0.00 Bohr mag/cell
     absolute magnetization    =    49.42 Bohr mag/cell

     iteration # 15     ecut=    71.00 Ry     beta= 0.30
     Davidson diagonalization with overlap
     ethr =  8.64E-09,  avg # of iterations =  2.0

     total cpu time spent up to now is     8682.0 secs

     total energy              =  -10536.25182818 Ry
     estimated scf accuracy    <       0.00023259 Ry

     total magnetization       =     0.00 Bohr mag/cell
     absolute magnetization    =    49.41 Bohr mag/cell

     iteration # 16     ecut=    71.00 Ry     beta= 0.30
     Davidson diagonalization with overlap
     ethr =  8.64E-09,  avg # of iterations =  1.0

     total cpu time spent up to now is     8773.2 secs

     total energy              =  -10536.25182679 Ry
     estimated scf accuracy    <       0.00021686 Ry

     total magnetization       =    -0.00 Bohr mag/cell
     absolute magnetization    =    49.43 Bohr mag/cell

     iteration # 17     ecut=    71.00 Ry     beta= 0.30
     Davidson diagonalization with overlap
     ethr =  8.64E-09,  avg # of iterations =  1.0

     total cpu time spent up to now is     8862.3 secs

     total energy              =  -10536.25180373 Ry
     estimated scf accuracy    <       0.00021237 Ry

     total magnetization       =    -0.00 Bohr mag/cell
     absolute magnetization    =    49.42 Bohr mag/cell

     iteration # 18     ecut=    71.00 Ry     beta= 0.30
     Davidson diagonalization with overlap
     ethr =  8.64E-09,  avg # of iterations =  2.0

     total cpu time spent up to now is     8963.5 secs

     total energy              =  -10536.25179476 Ry
     estimated scf accuracy    <       0.00012906 Ry

     total magnetization       =    -0.00 Bohr mag/cell
     absolute magnetization    =    49.39 Bohr mag/cell

     iteration # 19     ecut=    71.00 Ry     beta= 0.30
     Davidson diagonalization with overlap
     ethr =  8.64E-09,  avg # of iterations =  2.1

     total cpu time spent up to now is     9066.1 secs

     total energy              =  -10536.25181331 Ry
     estimated scf accuracy    <       0.00007768 Ry

     total magnetization       =     0.00 Bohr mag/cell
     absolute magnetization    =    49.38 Bohr mag/cell

     iteration # 20     ecut=    71.00 Ry     beta= 0.30
     Davidson diagonalization with overlap
     ethr =  8.64E-09,  avg # of iterations =  2.0

     total cpu time spent up to now is     9172.1 secs

     total energy              =  -10536.25187118 Ry
     estimated scf accuracy    <       0.00015368 Ry

     total magnetization       =    -0.00 Bohr mag/cell
     absolute magnetization    =    49.43 Bohr mag/cell

     iteration # 21     ecut=    71.00 Ry     beta= 0.30
     Davidson diagonalization with overlap
     ethr =  8.64E-09,  avg # of iterations =  4.1

     total cpu time spent up to now is     9304.7 secs

     total energy              =  -10536.25170396 Ry
     estimated scf accuracy    <       0.00044483 Ry

     total magnetization       =     0.00 Bohr mag/cell
     absolute magnetization    =    49.45 Bohr mag/cell

     iteration # 22     ecut=    71.00 Ry     beta= 0.30
     Davidson diagonalization with overlap
     ethr =  8.64E-09,  avg # of iterations =  6.0

     total cpu time spent up to now is     9490.2 secs

     total energy              =  -10536.25177848 Ry
     estimated scf accuracy    <       0.00000682 Ry

     total magnetization       =     0.00 Bohr mag/cell
     absolute magnetization    =    49.39 Bohr mag/cell

     iteration # 23     ecut=    71.00 Ry     beta= 0.30
     Davidson diagonalization with overlap
     ethr =  1.33E-09,  avg # of iterations =  2.0

     total cpu time spent up to now is     9589.9 secs

     total energy              =  -10536.25177877 Ry
     estimated scf accuracy    <       0.00000540 Ry

     total magnetization       =    -0.00 Bohr mag/cell
     absolute magnetization    =    49.39 Bohr mag/cell

     iteration # 24     ecut=    71.00 Ry     beta= 0.30
     Davidson diagonalization with overlap
     ethr =  1.06E-09,  avg # of iterations =  1.3

     total cpu time spent up to now is     9681.8 secs

     total energy              =  -10536.25177881 Ry
     estimated scf accuracy    <       0.00000618 Ry

     total magnetization       =    -0.00 Bohr mag/cell
     absolute magnetization    =    49.38 Bohr mag/cell

     iteration # 25     ecut=    71.00 Ry     beta= 0.30
     Davidson diagonalization with overlap
     ethr =  1.06E-09,  avg # of iterations =  1.0

     total cpu time spent up to now is     9771.1 secs

     total energy              =  -10536.25177920 Ry
     estimated scf accuracy    <       0.00000248 Ry

     total magnetization       =    -0.00 Bohr mag/cell
     absolute magnetization    =    49.38 Bohr mag/cell

     iteration # 26     ecut=    71.00 Ry     beta= 0.30
     Davidson diagonalization with overlap
     ethr =  4.84E-10,  avg # of iterations =  1.9

     total cpu time spent up to now is     9869.0 secs

     total energy              =  -10536.25177943 Ry
     estimated scf accuracy    <       0.00000397 Ry

     total magnetization       =    -0.00 Bohr mag/cell
     absolute magnetization    =    49.38 Bohr mag/cell

     iteration # 27     ecut=    71.00 Ry     beta= 0.30
     Davidson diagonalization with overlap
     ethr =  4.84E-10,  avg # of iterations =  2.7

     total cpu time spent up to now is     9977.7 secs

     total energy              =  -10536.25177986 Ry
     estimated scf accuracy    <       0.00000649 Ry

     total magnetization       =    -0.00 Bohr mag/cell
     absolute magnetization    =    49.36 Bohr mag/cell

     iteration # 28     ecut=    71.00 Ry     beta= 0.30
     Davidson diagonalization with overlap
     ethr =  4.84E-10,  avg # of iterations =  2.3

     total cpu time spent up to now is    10080.7 secs

     total energy              =  -10536.25178018 Ry
     estimated scf accuracy    <       0.00001742 Ry

     total magnetization       =     0.00 Bohr mag/cell
     absolute magnetization    =    49.35 Bohr mag/cell

     iteration # 29     ecut=    71.00 Ry     beta= 0.30
     Davidson diagonalization with overlap
     ethr =  4.84E-10,  avg # of iterations =  1.9

     total cpu time spent up to now is    10179.4 secs

     total energy              =  -10536.25177967 Ry
     estimated scf accuracy    <       0.00000157 Ry

     total magnetization       =     0.00 Bohr mag/cell
     absolute magnetization    =    49.34 Bohr mag/cell

     iteration # 30     ecut=    71.00 Ry     beta= 0.30
     Davidson diagonalization with overlap
     ethr =  3.06E-10,  avg # of iterations =  1.9

     total cpu time spent up to now is    10279.0 secs

     total energy              =  -10536.25177987 Ry
     estimated scf accuracy    <       0.00000467 Ry

     total magnetization       =    -0.00 Bohr mag/cell
     absolute magnetization    =    49.35 Bohr mag/cell

     iteration # 31     ecut=    71.00 Ry     beta= 0.30
     Davidson diagonalization with overlap
     ethr =  3.06E-10,  avg # of iterations =  1.0

     total cpu time spent up to now is    10367.8 secs

     total energy              =  -10536.25178004 Ry
     estimated scf accuracy    <       0.00000039 Ry

     total magnetization       =    -0.00 Bohr mag/cell
     absolute magnetization    =    49.35 Bohr mag/cell

     iteration # 32     ecut=    71.00 Ry     beta= 0.30
     Davidson diagonalization with overlap
     ethr =  7.64E-11,  avg # of iterations =  2.0

     total cpu time spent up to now is    10468.7 secs

     total energy              =  -10536.25178003 Ry
     estimated scf accuracy    <       0.00000088 Ry

     total magnetization       =    -0.00 Bohr mag/cell
     absolute magnetization    =    49.34 Bohr mag/cell

     iteration # 33     ecut=    71.00 Ry     beta= 0.30
     Davidson diagonalization with overlap
     ethr =  7.64E-11,  avg # of iterations =  1.0

     total cpu time spent up to now is    10557.9 secs

     total energy              =  -10536.25178006 Ry
     estimated scf accuracy    <       0.00000014 Ry

     total magnetization       =    -0.00 Bohr mag/cell
     absolute magnetization    =    49.34 Bohr mag/cell

     iteration # 34     ecut=    71.00 Ry     beta= 0.30
     Davidson diagonalization with overlap
     ethr =  2.76E-11,  avg # of iterations =  2.2

     total cpu time spent up to now is    10657.7 secs

     total energy              =  -10536.25178001 Ry
     estimated scf accuracy    <       0.00000012 Ry

     total magnetization       =    -0.00 Bohr mag/cell
     absolute magnetization    =    49.34 Bohr mag/cell

     iteration # 35     ecut=    71.00 Ry     beta= 0.30
     Davidson diagonalization with overlap
     ethr =  2.33E-11,  avg # of iterations =  1.8

     total cpu time spent up to now is    10754.2 secs

     total energy              =  -10536.25177998 Ry
     estimated scf accuracy    <       0.00000007 Ry

     total magnetization       =    -0.00 Bohr mag/cell
     absolute magnetization    =    49.34 Bohr mag/cell

     iteration # 36     ecut=    71.00 Ry     beta= 0.30
     Davidson diagonalization with overlap
     ethr =  1.31E-11,  avg # of iterations =  1.5

     total cpu time spent up to now is    10848.9 secs

     total energy              =  -10536.25177994 Ry
     estimated scf accuracy    <       0.00000005 Ry

     total magnetization       =    -0.00 Bohr mag/cell
     absolute magnetization    =    49.34 Bohr mag/cell

     iteration # 37     ecut=    71.00 Ry     beta= 0.30
     Davidson diagonalization with overlap
     ethr =  8.91E-12,  avg # of iterations =  2.2

     total cpu time spent up to now is    10973.4 secs

     total energy              =  -10536.25177994 Ry
     estimated scf accuracy    <       0.00000005 Ry

     total magnetization       =    -0.00 Bohr mag/cell
     absolute magnetization    =    49.34 Bohr mag/cell

     iteration # 38     ecut=    71.00 Ry     beta= 0.30
     Davidson diagonalization with overlap
     ethr =  8.91E-12,  avg # of iterations =  2.0

     total cpu time spent up to now is    11072.8 secs

     total energy              =  -10536.25177994 Ry
     estimated scf accuracy    <       0.00000012 Ry

     total magnetization       =    -0.00 Bohr mag/cell
     absolute magnetization    =    49.34 Bohr mag/cell

     iteration # 39     ecut=    71.00 Ry     beta= 0.30
     Davidson diagonalization with overlap
     ethr =  8.91E-12,  avg # of iterations =  1.1
 
     Magnetic moment per site:
     atom:    1    charge:   14.4022    magn:    1.4862    constr:    0.0000
     atom:    2    charge:   14.4017    magn:   -1.4868    constr:    0.0000
     atom:    3    charge:   14.4013    magn:    1.4872    constr:    0.0000
     atom:    4    charge:   14.4017    magn:   -1.4868    constr:    0.0000
     atom:    5    charge:   14.4022    magn:    1.4862    constr:    0.0000
     atom:    6    charge:   14.4018    magn:   -1.4868    constr:    0.0000
     atom:    7    charge:   14.4013    magn:    1.4872    constr:    0.0000
     atom:    8    charge:   14.4017    magn:   -1.4868    constr:    0.0000
     atom:    9    charge:   14.4022    magn:    1.4863    constr:    0.0000
     atom:   10    charge:   14.4017    magn:   -1.4868    constr:    0.0000
     atom:   11    charge:   14.4013    magn:    1.4872    constr:    0.0000
     atom:   12    charge:   14.4017    magn:   -1.4868    constr:    0.0000
     atom:   13    charge:   14.4021    magn:    1.4863    constr:    0.0000
     atom:   14    charge:   14.4018    magn:   -1.4868    constr:    0.0000
     atom:   15    charge:   14.4013    magn:    1.4872    constr:    0.0000
     atom:   16    charge:   14.4017    magn:   -1.4868    constr:    0.0000
     atom:   17    charge:   14.4022    magn:    1.4862    constr:    0.0000
     atom:   18    charge:   14.4017    magn:   -1.4868    constr:    0.0000
     atom:   19    charge:   14.4013    magn:    1.4872    constr:    0.0000
     atom:   20    charge:   14.4018    magn:   -1.4868    constr:    0.0000
     atom:   21    charge:   14.4021    magn:    1.4863    constr:    0.0000
     atom:   22    charge:   14.4018    magn:   -1.4868    constr:    0.0000
     atom:   23    charge:   14.4013    magn:    1.4872    constr:    0.0000
     atom:   24    charge:   14.4018    magn:   -1.4868    constr:    0.0000
     atom:   25    charge:   14.4021    magn:    1.4863    constr:    0.0000
     atom:   26    charge:   14.4017    magn:   -1.4868    constr:    0.0000
     atom:   27    charge:   14.4013    magn:    1.4872    constr:    0.0000
     atom:   28    charge:   14.4018    magn:   -1.4868    constr:    0.0000
     atom:   29    charge:   14.4021    magn:    1.4863    constr:    0.0000
     atom:   30    charge:   14.4018    magn:   -1.4868    constr:    0.0000
     atom:   31    charge:   14.4013    magn:    1.4872    constr:    0.0000
     atom:   32    charge:   14.4018    magn:   -1.4868    constr:    0.0000

     total cpu time spent up to now is    11163.2 secs

     End of self-consistent calculation

     Number of k-points >= 100: set verbosity='high' to print the bands.

     the Fermi energy is    20.1356 ev

!    total energy              =  -10536.25177996 Ry

     total all-electron energy =    -81457.740838 Ry
     estimated scf accuracy    <          8.3E-09 Ry
     smearing contrib. (-TS)   =       0.01342285 Ry
     internal energy E=F+TS    =  -10536.26520281 Ry

     The total energy is F=E-TS. E is the sum of the following terms:
     one-electron contribution =   -3290.10582312 Ry
     hartree contribution      =    1995.68515767 Ry
     xc contribution           =    -886.96122972 Ry
     ewald contribution        =   -5705.32156312 Ry
     one-center paw contrib.   =   -2649.56174452 Ry

     total magnetization       =    -0.00 Bohr mag/cell
     absolute magnetization    =    49.34 Bohr mag/cell

     convergence has been achieved in  39 iterations

     Forces acting on atoms (cartesian axes, Ry/au):

     atom    1 type  1   force =     0.00000000    0.00000000    0.00000000
     atom    2 type  2   force =    -0.00000100    0.00000142    0.00000000
     atom    3 type  1   force =     0.00000022    0.00000000    0.00000022
     atom    4 type  2   force =    -0.00000000    0.00000142   -0.00000100
     atom    5 type  1   force =     0.00000000    0.00000000    0.00000000
     atom    6 type  2   force =     0.00000066    0.00000102   -0.00000000
     atom    7 type  1   force =     0.00000022   -0.00000000   -0.00000022
     atom    8 type  2   force =     0.00000000    0.00000142    0.00000100
     atom    9 type  1   force =     0.00000000    0.00000000    0.00000000
     atom   10 type  2   force =    -0.00000100   -0.00000142   -0.00000000
     atom   11 type  1   force =    -0.00000068    0.00000000   -0.00000068
     atom   12 type  2   force =     0.00000000   -0.00000142   -0.00000100
     atom   13 type  1   force =     0.00000000    0.00000000    0.00000000
     atom   14 type  2   force =     0.00000066   -0.00000102    0.00000000
     atom   15 type  1   force =    -0.00000068    0.00000000    0.00000068
     atom   16 type  2   force =    -0.00000000   -0.00000142    0.00000100
     atom   17 type  1   force =     0.00000000    0.00000000    0.00000000
     atom   18 type  2   force =     0.00000100    0.00000142    0.00000000
     atom   19 type  1   force =    -0.00000022    0.00000000    0.00000022
     atom   20 type  2   force =     0.00000000    0.00000102    0.00000066
     atom   21 type  1   force =     0.00000000    0.00000000    0.00000000
     atom   22 type  2   force =    -0.00000066    0.00000102    0.00000000
     atom   23 type  1   force =    -0.00000022    0.00000000   -0.00000022
     atom   24 type  2   force =     0.00000000    0.00000102   -0.00000066
     atom   25 type  1   force =     0.00000000    0.00000000    0.00000000
     atom   26 type  2   force =     0.00000100   -0.00000142    0.00000000
     atom   27 type  1   force =     0.00000068    0.00000000   -0.00000068
     atom   28 type  2   force =     0.00000000   -0.00000102    0.00000066
     atom   29 type  1   force =     0.00000000    0.00000000    0.00000000
     atom   30 type  2   force =    -0.00000066   -0.00000102   -0.00000000
     atom   31 type  1   force =     0.00000068    0.00000000    0.00000068
     atom   32 type  2   force =    -0.00000000   -0.00000102   -0.00000066

     Total force =     0.000006     Total SCF correction =     0.000143
     SCF correction compared to forces is large: reduce conv_thr to get better values


     Computing stress (Cartesian axis) and pressure

          total   stress  (Ry/bohr**3)                   (kbar)     P=        0.97
  -0.00000020   0.00000000   0.00000000           -0.03        0.00        0.00
   0.00000000   0.00002012   0.00000000            0.00        2.96        0.00
   0.00000000   0.00000000  -0.00000020            0.00        0.00       -0.03

     Energy error            =      1.4E-04
     Gradient error          =      1.4E-06
     Cell gradient error     =      2.0E-05


     number of scf cycles    =   2
     number of bfgs steps    =   1

     enthalpy old            =  -10536.2516393935 Ry
     enthalpy new            =  -10536.2517799589 Ry

     CASE: enthalpy_new < enthalpy_old

     new trust radius        =       0.0048294118 bohr
     new conv_thr            =            1.0E-10 Ry

     new unit-cell volume =   2282.71741 a.u.^3 (   338.26382 Ang^3 )
     density =      8.77259 g/cm^3

CELL_PARAMETERS (alat= 12.95714297)
   0.998661712   0.000000000   0.000000000
   0.000000000   1.052174079   0.000000000
   0.000000000   0.000000000   0.998661712

ATOMIC_POSITIONS (crystal)
Fe1           0.0000000000        0.0000000000        0.0000000000
Fe2           0.2500000884        0.2499998662        0.0000000000
Fe1           0.2500002279        0.0000000000        0.2500002279
Fe2          -0.0000000000        0.2499998662        0.2500000884
Fe1           0.0000000000        0.0000000000        0.5000000000
Fe2           0.2500004081        0.2499999793        0.5000000000
Fe1           0.2500002279       -0.0000000000        0.7499997721
Fe2           0.0000000000        0.2499998662        0.7499999116
Fe1           0.0000000000        0.5000000000        0.0000000000
Fe2           0.2500000884        0.7500001338        0.0000000000
Fe1           0.2500003739        0.5000000000        0.2500003739
Fe2           0.0000000000        0.7500001338        0.2500000884
Fe1           0.0000000000        0.5000000000        0.5000000000
Fe2           0.2500004081        0.7500000207        0.5000000000
Fe1           0.2500003739        0.5000000000        0.7499996261
Fe2          -0.0000000000        0.7500001338        0.7499999116
Fe1           0.5000000000        0.0000000000        0.0000000000
Fe2           0.7499999116        0.2499998662        0.0000000000
Fe1           0.7499997721        0.0000000000        0.2500002279
Fe2           0.5000000000        0.2499999793        0.2500004081
Fe1           0.5000000000        0.0000000000        0.5000000000
Fe2           0.7499995919        0.2499999793        0.5000000000
Fe1           0.7499997721        0.0000000000        0.7499997721
Fe2           0.5000000000        0.2499999793        0.7499995919
Fe1           0.5000000000        0.5000000000        0.0000000000
Fe2           0.7499999116        0.7500001338        0.0000000000
Fe1           0.7499996261        0.5000000000        0.2500003739
Fe2           0.5000000000        0.7500000207        0.2500004081
Fe1           0.5000000000        0.5000000000        0.5000000000
Fe2           0.7499995919        0.7500000207        0.5000000000
Fe1           0.7499996261        0.5000000000        0.7499996261
Fe2           0.5000000000        0.7500000207        0.7499995919



     Writing output data file /scratch/bxp912/fefccrelax.save/
     NEW-OLD atomic charge density approx. for the potential

     Check: negative core charge=   -0.000006
     extrapolated charge  512.14742, renormalised to  512.00000
     Generating pointlists ...

     total cpu time spent up to now is    11276.5 secs

     Self-consistent Calculation

     iteration #  1     ecut=    71.00 Ry     beta= 0.30
     Davidson diagonalization with overlap
     ethr =  1.00E-06,  avg # of iterations =  2.4

     total cpu time spent up to now is    11414.4 secs

     total energy              =  -10536.25084240 Ry
     estimated scf accuracy    <       0.00123463 Ry

     total magnetization       =    -0.00 Bohr mag/cell
     absolute magnetization    =    49.32 Bohr mag/cell

     iteration #  2     ecut=    71.00 Ry     beta= 0.30
     Davidson diagonalization with overlap
     ethr =  2.41E-07,  avg # of iterations =  5.5

     total cpu time spent up to now is    11591.5 secs

     total energy              =  -10536.25178278 Ry
     estimated scf accuracy    <       0.00185504 Ry

     total magnetization       =     0.00 Bohr mag/cell
     absolute magnetization    =    49.41 Bohr mag/cell

     iteration #  3     ecut=    71.00 Ry     beta= 0.30
     Davidson diagonalization with overlap
     ethr =  2.41E-07,  avg # of iterations =  2.0

     total cpu time spent up to now is    11692.2 secs

     total energy              =  -10536.25181824 Ry
     estimated scf accuracy    <       0.00186430 Ry

     total magnetization       =    -0.01 Bohr mag/cell
     absolute magnetization    =    49.39 Bohr mag/cell

     iteration #  4     ecut=    71.00 Ry     beta= 0.30
     Davidson diagonalization with overlap
     ethr =  2.41E-07,  avg # of iterations =  1.0

     total cpu time spent up to now is    11780.8 secs

     total energy              =  -10536.25186119 Ry
     estimated scf accuracy    <       0.00048148 Ry

     total magnetization       =    -0.00 Bohr mag/cell
     absolute magnetization    =    49.39 Bohr mag/cell

     iteration #  5     ecut=    71.00 Ry     beta= 0.30
     Davidson diagonalization with overlap
     ethr =  9.40E-08,  avg # of iterations =  1.3

     total cpu time spent up to now is    11873.9 secs

     total energy              =  -10536.25185904 Ry
     estimated scf accuracy    <       0.00033190 Ry

     total magnetization       =    -0.00 Bohr mag/cell
     absolute magnetization    =    49.39 Bohr mag/cell

     iteration #  6     ecut=    71.00 Ry     beta= 0.30
     Davidson diagonalization with overlap
     ethr =  6.48E-08,  avg # of iterations =  1.0

     total cpu time spent up to now is    11962.6 secs

     total energy              =  -10536.25185254 Ry
     estimated scf accuracy    <       0.00029514 Ry

     total magnetization       =    -0.00 Bohr mag/cell
     absolute magnetization    =    49.39 Bohr mag/cell

     iteration #  7     ecut=    71.00 Ry     beta= 0.30
     Davidson diagonalization with overlap
     ethr =  5.76E-08,  avg # of iterations =  1.0

     total cpu time spent up to now is    12051.3 secs

     total energy              =  -10536.25187916 Ry
     estimated scf accuracy    <       0.00025911 Ry

     total magnetization       =    -0.00 Bohr mag/cell
     absolute magnetization    =    49.39 Bohr mag/cell

     iteration #  8     ecut=    71.00 Ry     beta= 0.30
     Davidson diagonalization with overlap
     ethr =  5.06E-08,  avg # of iterations =  1.0

     total cpu time spent up to now is    12140.0 secs

     total energy              =  -10536.25189266 Ry
     estimated scf accuracy    <       0.00035679 Ry

     total magnetization       =    -0.00 Bohr mag/cell
     absolute magnetization    =    49.39 Bohr mag/cell

[...]
     absolute magnetization    =    49.54 Bohr mag/cell

     iteration # 64     ecut=    71.00 Ry     beta= 0.30
     Davidson diagonalization with overlap
     ethr =  1.61E-12,  avg # of iterations =  4.2

     total cpu time spent up to now is    27750.0 secs

     total energy              =  -10536.25055688 Ry
     estimated scf accuracy    <       0.00000010 Ry

     total magnetization       =     0.00 Bohr mag/cell
     absolute magnetization    =    49.54 Bohr mag/cell

     iteration # 65     ecut=    71.00 Ry     beta= 0.30
     Davidson diagonalization with overlap
     ethr =  1.61E-12,  avg # of iterations =  3.2

     total cpu time spent up to now is    27859.1 secs

     total energy              =  -10536.25055688 Ry
     estimated scf accuracy    <          7.8E-09 Ry

     total magnetization       =     0.00 Bohr mag/cell
     absolute magnetization    =    49.54 Bohr mag/cell

     iteration # 66     ecut=    71.00 Ry     beta= 0.30
     Davidson diagonalization with overlap
     ethr =  1.53E-12,  avg # of iterations =  2.9

     total cpu time spent up to now is    27967.3 secs

     total energy              =  -10536.25055688 Ry
     estimated scf accuracy    <          4.4E-09 Ry

     total magnetization       =     0.00 Bohr mag/cell
     absolute magnetization    =    49.54 Bohr mag/cell

     iteration # 67     ecut=    71.00 Ry     beta= 0.30
     Davidson diagonalization with overlap
     ethr =  8.57E-13,  avg # of iterations =  1.3

     total cpu time spent up to now is    28057.7 secs

     total energy              =  -10536.25055688 Ry
     estimated scf accuracy    <          3.7E-09 Ry

     total magnetization       =     0.00 Bohr mag/cell
     absolute magnetization    =    49.54 Bohr mag/cell

     iteration # 68     ecut=    71.00 Ry     beta= 0.30
     Davidson diagonalization with overlap
     ethr =  7.15E-13,  avg # of iterations =  4.1

     total cpu time spent up to now is    28182.5 secs

     total energy              =  -10536.25055687 Ry
     estimated scf accuracy    <       0.00000002 Ry

     total magnetization       =     0.00 Bohr mag/cell
     absolute magnetization    =    49.54 Bohr mag/cell

     iteration # 69     ecut=    71.00 Ry     beta= 0.30
     Davidson diagonalization with overlap
     ethr =  7.15E-13,  avg # of iterations =  4.1

     total cpu time spent up to now is    28311.2 secs

     total energy              =  -10536.25055688 Ry
     estimated scf accuracy    <       0.00000002 Ry

     total magnetization       =     0.00 Bohr mag/cell
     absolute magnetization    =    49.54 Bohr mag/cell

     iteration # 70     ecut=    71.00 Ry     beta= 0.30
     Davidson diagonalization with overlap
     ethr =  7.15E-13,  avg # of iterations =  4.9

     total cpu time spent up to now is    28451.2 secs

     total energy              =  -10536.25055688 Ry
     estimated scf accuracy    <          4.0E-09 Ry

     total magnetization       =    -0.00 Bohr mag/cell
     absolute magnetization    =    49.54 Bohr mag/cell

     iteration # 71     ecut=    71.00 Ry     beta= 0.30
     Davidson diagonalization with overlap
     ethr =  7.15E-13,  avg # of iterations =  4.4

     total cpu time spent up to now is    28578.7 secs

     total energy              =  -10536.25055688 Ry
     estimated scf accuracy    <          4.0E-09 Ry

     total magnetization       =    -0.00 Bohr mag/cell
     absolute magnetization    =    49.54 Bohr mag/cell

     iteration # 72     ecut=    71.00 Ry     beta= 0.30
     Davidson diagonalization with overlap
     ethr =  7.15E-13,  avg # of iterations =  4.2

     total cpu time spent up to now is    28697.5 secs

     total energy              =  -10536.25055688 Ry
     estimated scf accuracy    <       0.00000001 Ry

     total magnetization       =    -0.00 Bohr mag/cell
     absolute magnetization    =    49.54 Bohr mag/cell

     iteration # 73     ecut=    71.00 Ry     beta= 0.30
     Davidson diagonalization with overlap
     ethr =  7.15E-13,  avg # of iterations =  4.9

     total cpu time spent up to now is    28828.2 secs

     total energy              =  -10536.25055689 Ry
     estimated scf accuracy    <          1.5E-09 Ry

     total magnetization       =    -0.00 Bohr mag/cell
     absolute magnetization    =    49.54 Bohr mag/cell

     iteration # 74     ecut=    71.00 Ry     beta= 0.30
     Davidson diagonalization with overlap
     ethr =  2.86E-13,  avg # of iterations =  1.7

     total cpu time spent up to now is    28923.5 secs

     total energy              =  -10536.25055688 Ry
     estimated scf accuracy    <          1.1E-09 Ry

     total magnetization       =    -0.00 Bohr mag/cell
     absolute magnetization    =    49.54 Bohr mag/cell

     iteration # 75     ecut=    71.00 Ry     beta= 0.30
     Davidson diagonalization with overlap
     ethr =  2.15E-13,  avg # of iterations =  5.5

     total cpu time spent up to now is    29083.3 secs

     total energy              =  -10536.25055689 Ry
     estimated scf accuracy    <          2.0E-09 Ry

     total magnetization       =    -0.00 Bohr mag/cell
     absolute magnetization    =    49.54 Bohr mag/cell

     iteration # 76     ecut=    71.00 Ry     beta= 0.30
     Davidson diagonalization with overlap
     ethr =  2.15E-13,  avg # of iterations =  2.0

     total cpu time spent up to now is    29182.6 secs

     total energy              =  -10536.25055689 Ry
     estimated scf accuracy    <          6.9E-10 Ry

     total magnetization       =    -0.00 Bohr mag/cell
     absolute magnetization    =    49.54 Bohr mag/cell

     iteration # 77     ecut=    71.00 Ry     beta= 0.30
     Davidson diagonalization with overlap
     ethr =  1.35E-13,  avg # of iterations =  3.0

     total cpu time spent up to now is    29293.8 secs

     total energy              =  -10536.25055689 Ry
     estimated scf accuracy    <          1.9E-09 Ry

     total magnetization       =    -0.00 Bohr mag/cell
     absolute magnetization    =    49.54 Bohr mag/cell

     iteration # 78     ecut=    71.00 Ry     beta= 0.30
     Davidson diagonalization with overlap
     ethr =  1.35E-13,  avg # of iterations =  3.4

     total cpu time spent up to now is    29406.2 secs

     total energy              =  -10536.25055689 Ry
     estimated scf accuracy    <          2.8E-10 Ry

     total magnetization       =    -0.00 Bohr mag/cell
     absolute magnetization    =    49.54 Bohr mag/cell

     iteration # 79     ecut=    71.00 Ry     beta= 0.30
     Davidson diagonalization with overlap
     ethr =  1.00E-13,  avg # of iterations =  1.2

     total cpu time spent up to now is    29496.1 secs

     total energy              =  -10536.25055689 Ry
     estimated scf accuracy    <          7.7E-10 Ry

     total magnetization       =    -0.00 Bohr mag/cell
     absolute magnetization    =    49.54 Bohr mag/cell

     iteration # 80     ecut=    71.00 Ry     beta= 0.30
     Davidson diagonalization with overlap
     ethr =  1.00E-13,  avg # of iterations =  2.2

     total cpu time spent up to now is    29596.9 secs

     total energy              =  -10536.25055689 Ry
     estimated scf accuracy    <          4.9E-10 Ry

     total magnetization       =    -0.00 Bohr mag/cell
     absolute magnetization    =    49.54 Bohr mag/cell

     iteration # 81     ecut=    71.00 Ry     beta= 0.30
     Davidson diagonalization with overlap
     ethr =  1.00E-13,  avg # of iterations =  1.4

     total cpu time spent up to now is    29688.9 secs

     total energy              =  -10536.25055689 Ry
     estimated scf accuracy    <          7.9E-10 Ry

     total magnetization       =    -0.00 Bohr mag/cell
     absolute magnetization    =    49.54 Bohr mag/cell

     iteration # 82     ecut=    71.00 Ry     beta= 0.30
     Davidson diagonalization with overlap
     ethr =  1.00E-13,  avg # of iterations =  1.7

     total cpu time spent up to now is    29785.3 secs

     total energy              =  -10536.25055689 Ry
     estimated scf accuracy    <          5.4E-10 Ry

     total magnetization       =    -0.00 Bohr mag/cell
     absolute magnetization    =    49.54 Bohr mag/cell

     iteration # 83     ecut=    71.00 Ry     beta= 0.30
     Davidson diagonalization with overlap
     ethr =  1.00E-13,  avg # of iterations =  1.3

     total cpu time spent up to now is    29877.0 secs

     total energy              =  -10536.25055689 Ry
     estimated scf accuracy    <          3.0E-10 Ry

     total magnetization       =    -0.00 Bohr mag/cell
     absolute magnetization    =    49.54 Bohr mag/cell

     iteration # 84     ecut=    71.00 Ry     beta= 0.30
     Davidson diagonalization with overlap
     ethr =  1.00E-13,  avg # of iterations =  1.6

     total cpu time spent up to now is    29971.5 secs

     total energy              =  -10536.25055689 Ry
     estimated scf accuracy    <          2.8E-10 Ry

     total magnetization       =    -0.00 Bohr mag/cell
     absolute magnetization    =    49.54 Bohr mag/cell

     iteration # 85     ecut=    71.00 Ry     beta= 0.30
     Davidson diagonalization with overlap
     ethr =  1.00E-13,  avg # of iterations =  2.5

     total cpu time spent up to now is    30072.9 secs

     total energy              =  -10536.25055689 Ry
     estimated scf accuracy    <          4.4E-10 Ry

     total magnetization       =    -0.00 Bohr mag/cell
     absolute magnetization    =    49.54 Bohr mag/cell

     iteration # 86     ecut=    71.00 Ry     beta= 0.30
     Davidson diagonalization with overlap
     ethr =  1.00E-13,  avg # of iterations =  2.2

     total cpu time spent up to now is    30174.5 secs

     total energy              =  -10536.25055689 Ry
     estimated scf accuracy    <          1.2E-10 Ry

     total magnetization       =    -0.00 Bohr mag/cell
     absolute magnetization    =    49.54 Bohr mag/cell

     iteration # 87     ecut=    71.00 Ry     beta= 0.30
     Davidson diagonalization with overlap
     ethr =  1.00E-13,  avg # of iterations =  1.0

     total cpu time spent up to now is    30263.3 secs

     total energy              =  -10536.25055689 Ry
     estimated scf accuracy    <          1.2E-10 Ry

     total magnetization       =    -0.00 Bohr mag/cell
     absolute magnetization    =    49.54 Bohr mag/cell

     iteration # 88     ecut=    71.00 Ry     beta= 0.30
     Davidson diagonalization with overlap
     ethr =  1.00E-13,  avg # of iterations =  1.0

     total cpu time spent up to now is    30351.1 secs

     total energy              =  -10536.25055689 Ry
     estimated scf accuracy    <          3.0E-10 Ry

     total magnetization       =    -0.00 Bohr mag/cell
     absolute magnetization    =    49.54 Bohr mag/cell

     iteration # 89     ecut=    71.00 Ry     beta= 0.30
     Davidson diagonalization with overlap
     ethr =  1.00E-13,  avg # of iterations =  1.3
 
     Magnetic moment per site:
     atom:    1    charge:   14.4008    magn:    1.4925    constr:    0.0000
     atom:    2    charge:   14.4010    magn:   -1.4928    constr:    0.0000
     atom:    3    charge:   14.4005    magn:    1.4931    constr:    0.0000
     atom:    4    charge:   14.4010    magn:   -1.4928    constr:    0.0000
     atom:    5    charge:   14.4008    magn:    1.4924    constr:    0.0000
     atom:    6    charge:   14.4010    magn:   -1.4928    constr:    0.0000
     atom:    7    charge:   14.4005    magn:    1.4931    constr:    0.0000
     atom:    8    charge:   14.4010    magn:   -1.4928    constr:    0.0000
     atom:    9    charge:   14.4008    magn:    1.4924    constr:    0.0000
     atom:   10    charge:   14.4010    magn:   -1.4928    constr:    0.0000
     atom:   11    charge:   14.4005    magn:    1.4932    constr:    0.0000
     atom:   12    charge:   14.4010    magn:   -1.4928    constr:    0.0000
     atom:   13    charge:   14.4008    magn:    1.4924    constr:    0.0000
     atom:   14    charge:   14.4010    magn:   -1.4928    constr:    0.0000
     atom:   15    charge:   14.4005    magn:    1.4932    constr:    0.0000
     atom:   16    charge:   14.4010    magn:   -1.4928    constr:    0.0000
     atom:   17    charge:   14.4008    magn:    1.4924    constr:    0.0000
     atom:   18    charge:   14.4010    magn:   -1.4928    constr:    0.0000
     atom:   19    charge:   14.4005    magn:    1.4931    constr:    0.0000
     atom:   20    charge:   14.4010    magn:   -1.4928    constr:    0.0000
     atom:   21    charge:   14.4008    magn:    1.4924    constr:    0.0000
     atom:   22    charge:   14.4010    magn:   -1.4928    constr:    0.0000
     atom:   23    charge:   14.4005    magn:    1.4931    constr:    0.0000
     atom:   24    charge:   14.4010    magn:   -1.4928    constr:    0.0000
     atom:   25    charge:   14.4008    magn:    1.4924    constr:    0.0000
     atom:   26    charge:   14.4010    magn:   -1.4928    constr:    0.0000
     atom:   27    charge:   14.4005    magn:    1.4932    constr:    0.0000
     atom:   28    charge:   14.4010    magn:   -1.4928    constr:    0.0000
     atom:   29    charge:   14.4008    magn:    1.4924    constr:    0.0000
     atom:   30    charge:   14.4010    magn:   -1.4928    constr:    0.0000
     atom:   31    charge:   14.4005    magn:    1.4932    constr:    0.0000
     atom:   32    charge:   14.4010    magn:   -1.4928    constr:    0.0000

     total cpu time spent up to now is    30442.4 secs

     End of self-consistent calculation

     Number of k-points >= 100: set verbosity='high' to print the bands.

     the Fermi energy is    20.1192 ev

!    total energy              =  -10536.25055689 Ry

     total all-electron energy =    -81457.739615 Ry
     estimated scf accuracy    <          6.7E-11 Ry
     smearing contrib. (-TS)   =       0.01444578 Ry
     internal energy E=F+TS    =  -10536.26500267 Ry

     The total energy is F=E-TS. E is the sum of the following terms:
     one-electron contribution =   -3292.24640777 Ry
     hartree contribution      =    1996.46301397 Ry
     xc contribution           =    -886.95740130 Ry
     ewald contribution        =   -5703.96345770 Ry
     one-center paw contrib.   =   -2649.56074988 Ry

     total magnetization       =    -0.00 Bohr mag/cell
     absolute magnetization    =    49.54 Bohr mag/cell

     convergence has been achieved in  89 iterations

     Forces acting on atoms (cartesian axes, Ry/au):

     atom    1 type  1   force =     0.00000000    0.00000000    0.00000000
     atom    2 type  2   force =    -0.00000029    0.00000066    0.00000000
     atom    3 type  1   force =    -0.00000058    0.00000000   -0.00000058
     atom    4 type  2   force =     0.00000000    0.00000066   -0.00000029
     atom    5 type  1   force =     0.00000000    0.00000000    0.00000000
     atom    6 type  2   force =    -0.00000024    0.00000045    0.00000000
     atom    7 type  1   force =    -0.00000058    0.00000000    0.00000058
     atom    8 type  2   force =     0.00000000    0.00000066    0.00000029
     atom    9 type  1   force =     0.00000000    0.00000000    0.00000000
     atom   10 type  2   force =    -0.00000029   -0.00000066    0.00000000
     atom   11 type  1   force =    -0.00000067   -0.00000000   -0.00000067
     atom   12 type  2   force =     0.00000000   -0.00000066   -0.00000029
     atom   13 type  1   force =     0.00000000    0.00000000    0.00000000
     atom   14 type  2   force =    -0.00000024   -0.00000045    0.00000000
     atom   15 type  1   force =    -0.00000067    0.00000000    0.00000067
     atom   16 type  2   force =     0.00000000   -0.00000066    0.00000029
     atom   17 type  1   force =     0.00000000    0.00000000    0.00000000
     atom   18 type  2   force =     0.00000029    0.00000066    0.00000000
     atom   19 type  1   force =     0.00000058    0.00000000   -0.00000058
     atom   20 type  2   force =     0.00000000    0.00000045   -0.00000024
     atom   21 type  1   force =     0.00000000    0.00000000    0.00000000
     atom   22 type  2   force =     0.00000024    0.00000045    0.00000000
     atom   23 type  1   force =     0.00000058    0.00000000    0.00000058
     atom   24 type  2   force =     0.00000000    0.00000045    0.00000024
     atom   25 type  1   force =     0.00000000    0.00000000    0.00000000
     atom   26 type  2   force =     0.00000029   -0.00000066    0.00000000
     atom   27 type  1   force =     0.00000067    0.00000000   -0.00000067
     atom   28 type  2   force =     0.00000000   -0.00000045   -0.00000024
     atom   29 type  1   force =     0.00000000    0.00000000    0.00000000
     atom   30 type  2   force =     0.00000024   -0.00000045    0.00000000
     atom   31 type  1   force =     0.00000067   -0.00000000    0.00000067
     atom   32 type  2   force =     0.00000000   -0.00000045    0.00000024

     Total force =     0.000004     Total SCF correction =     0.000029
     SCF correction compared to forces is large: reduce conv_thr to get better values


     Computing stress (Cartesian axis) and pressure

          total   stress  (Ry/bohr**3)                   (kbar)     P=        0.08
   0.00000028   0.00000000   0.00000000            0.04        0.00        0.00
   0.00000000   0.00000104   0.00000000            0.00        0.15        0.00
   0.00000000   0.00000000   0.00000028            0.00        0.00        0.04


     Writing output data file /scratch/bxp912/fefccrelax.save/
 
     init_run     :     68.94s CPU     70.50s WALL (       2 calls)
     electrons    :  29501.18s CPU  29922.65s WALL (       5 calls)
     update_pot   :      1.83s CPU      1.87s WALL (       3 calls)
     forces       :     98.32s CPU     99.00s WALL (       5 calls)
     stress       :    434.23s CPU    437.60s WALL (       5 calls)

     Called by init_run:
     wfcinit      :     66.96s CPU     68.35s WALL (       2 calls)
     potinit      :      0.64s CPU      0.68s WALL (       2 calls)
     hinit0       :      0.61s CPU      0.68s WALL (       2 calls)

     Called by electrons:
     c_bands      :  25771.65s CPU  26119.83s WALL (     277 calls)
     sum_band     :   3661.45s CPU   3719.09s WALL (     277 calls)
     v_of_rho     :      6.09s CPU      6.39s WALL (     281 calls)
     newd         :     10.50s CPU     13.44s WALL (     281 calls)
     PAW_pot      :     49.52s CPU     52.12s WALL (     284 calls)
     mix_rho      :      2.29s CPU      2.68s WALL (     277 calls)

     Called by c_bands:
     init_us_2    :    124.95s CPU    127.15s WALL (   85350 calls)
     cegterg      :  25267.13s CPU  25556.63s WALL (   41550 calls)

     Called by *egterg:
     cdiaghg      :   3319.67s CPU   3336.90s WALL (  141902 calls)
     h_psi        :  14108.50s CPU  14330.83s WALL (  142802 calls)
     s_psi        :    989.69s CPU    997.11s WALL (  142802 calls)
     g_psi        :     23.72s CPU     24.05s WALL (  100952 calls)

     Called by h_psi:
     h_psi:calbec :   2084.96s CPU   2098.73s WALL (  142802 calls)
     vloc_psi     :  10954.13s CPU  11149.95s WALL (  142802 calls)
     add_vuspsi   :   1008.86s CPU   1021.24s WALL (  142802 calls)

     General routines
     calbec       :   3125.89s CPU   3146.81s WALL (  188552 calls)
     fft          :      4.83s CPU      4.94s WALL (    7220 calls)
     ffts         :      0.52s CPU      0.55s WALL (    1116 calls)
     fftw         :  13175.45s CPU  13409.05s WALL (69976888 calls)
     interpolate  :      0.67s CPU      0.69s WALL (     562 calls)
 
     Parallel routines
     fft_scatt_xy :    557.64s CPU    568.31s WALL (69985224 calls)
     fft_scatt_yz :  11290.03s CPU  11491.76s WALL (69985224 calls)
 
     PWSCF        :      8h22m CPU      8h29m WALL

 
   This run was terminated on:   1:15:11  15Mar2022            

=------------------------------------------------------------------------------=
   JOB DONE.
=------------------------------------------------------------------------------=
