
     Program PWSCF v.6.7MaX starts on 14Mar2022 at 14:11:28 

     This program is part of the open-source Quantum ESPRESSO suite
     for quantum simulation of materials; please cite
         "P. Giannozzi et al., J. Phys.:Condens. Matter 21 395502 (2009);
         "P. Giannozzi et al., J. Phys.:Condens. Matter 29 465901 (2017);
          URL http://www.quantum-espresso.org", 
     in publications or presentations arising from this work. More details at
     http://www.quantum-espresso.org/quote

     Parallel version (MPI & OpenMP), running on      72 processor cores
     Number of MPI processes:                72
     Threads/MPI process:                     1

     MPI processes distributed on     1 nodes
     R & G space division:  proc/nbgrp/npool/nimage =      72
     Reading input from relax.in

     Current dimensions of program PWSCF are:
     Max number of different atomic species (ntypx) = 10
     Max number of k-points (npk) =  40000
     Max angular momentum in pseudopotentials (lmaxx) =  3
     file Ru.pbe-spn-kjpaw_psl.1.0.0.UPF: wavefunction(s)  4D renormalized

     Subspace diagonalization in iterative solution of the eigenvalue problem:
     one sub-group per band group will be used
     ELPA distributed-memory algorithm (size of sub-group:  8*  8 procs)

     Found symmetry operation: I + (  0.0000  0.0000  0.5000)
     This is a supercell, fractional translations are disabled
 
     Parallelization info
     --------------------
     sticks:   dense  smooth     PW     G-vecs:    dense   smooth      PW
     Min          43      28      8                 3067     1642     253
     Max          44      29     10                 3073     1653     261
     Sum        3103    2053    595               221057   118587   18485
 


     bravais-lattice index     =            4
     lattice parameter (alat)  =      10.2300  a.u.
     unit-cell volume          =    1467.0549 (a.u.)^3
     number of atoms/cell      =           16
     number of atomic types    =            1
     number of electrons       =       256.00
     number of Kohn-Sham states=          154
     kinetic-energy cutoff     =      71.0000  Ry
     charge density cutoff     =     430.0000  Ry
     scf convergence threshold =      1.0E-08
     mixing beta               =       0.3000
     number of iterations used =           10  plain     mixing
     energy convergence thresh.=      1.0E-04
     force convergence thresh. =      1.0E-03
     press convergence thresh. =      5.0E-01
     Exchange-correlation= SLA  PW   PBX  PBC
                           (   1   4   3   4   0   0   0)
     nstep                     =           60


     celldm(1)=  10.230000  celldm(2)=   0.000000  celldm(3)=   1.582300
     celldm(4)=   0.000000  celldm(5)=   0.000000  celldm(6)=   0.000000

     crystal axes: (cart. coord. in units of alat)
               a(1) = (   1.000000   0.000000   0.000000 )  
               a(2) = (  -0.500000   0.866025   0.000000 )  
               a(3) = (   0.000000   0.000000   1.582300 )  

     reciprocal axes: (cart. coord. in units 2 pi/alat)
               b(1) = (  1.000000  0.577350  0.000000 )  
               b(2) = (  0.000000  1.154701  0.000000 )  
               b(3) = (  0.000000  0.000000  0.631991 )  


     PseudoPot. # 1 for Ru read from file:
     /rds/homes/b/bxp912/pp/Ru.pbe-spn-kjpaw_psl.1.0.0.UPF
     MD5 check sum: 0ae1f594dea09af7be8575c3a481d1ae
     Pseudo is Projector augmented-wave + core cor, Zval = 16.0
     Generated using "atomic" code by A. Dal Corso  v.5.1
     Shape of augmentation charge: PSQ
     Using radial grid of 1233 points,  6 beta functions with: 
                l(1) =   0
                l(2) =   0
                l(3) =   1
                l(4) =   1
                l(5) =   2
                l(6) =   2
     Q(r) pseudized with 0 coefficients 


     atomic species   valence    mass     pseudopotential
        Ru            16.00   101.07000     Ru( 1.00)

      4 Sym. Ops., with inversion, found



   Cartesian axes

     site n.     atom                  positions (alat units)
         1           Ru  tau(   1) = (   0.1250001   0.0721688   0.1977875  )
         2           Ru  tau(   2) = (   0.1249999   0.3608439   0.5933625  )
         3           Ru  tau(   3) = (   0.1250001   0.0721688   0.9889375  )
         4           Ru  tau(   4) = (   0.1249999   0.3608439   1.3845125  )
         5           Ru  tau(   5) = (  -0.1250000   0.5051815   0.1977875  )
         6           Ru  tau(   6) = (  -0.1250000   0.7938566   0.5933625  )
         7           Ru  tau(   7) = (  -0.1250000   0.5051815   0.9889375  )
         8           Ru  tau(   8) = (  -0.1250000   0.7938566   1.3845125  )
         9           Ru  tau(   9) = (   0.6250000   0.0721688   0.1977875  )
        10           Ru  tau(  10) = (   0.6250000   0.3608439   0.5933625  )
        11           Ru  tau(  11) = (   0.6250000   0.0721688   0.9889375  )
        12           Ru  tau(  12) = (   0.6250000   0.3608439   1.3845125  )
        13           Ru  tau(  13) = (   0.3750000   0.5051815   0.1977875  )
        14           Ru  tau(  14) = (   0.3750000   0.7938566   0.5933625  )
        15           Ru  tau(  15) = (   0.3750000   0.5051815   0.9889375  )
        16           Ru  tau(  16) = (   0.3750000   0.7938566   1.3845125  )

     number of k points=   378  Marzari-Vanderbilt smearing, width (Ry)=  0.0400

     Number of k-points >= 100: set verbosity='high' to print them.

     Dense  grid:   221057 G-vectors     FFT dimensions: (  72,  72, 108)

     Smooth grid:   118587 G-vectors     FFT dimensions: (  60,  60,  90)

     Estimated max dynamical RAM per process >     199.92 MB

     Estimated total dynamical RAM >      14.06 GB

     Check: negative core charge=   -0.000002

     Initial potential from superposition of free atoms

     starting charge  255.98980, renormalised to  256.00000
     Starting wfcs are  160 randomized atomic wfcs
     Checking if some PAW data can be deallocated... 

     total cpu time spent up to now is       35.0 secs

     Self-consistent Calculation

     iteration #  1     ecut=    71.00 Ry     beta= 0.30
     Davidson diagonalization with overlap
     ethr =  1.00E-02,  avg # of iterations =  3.7

     Threshold (ethr) on eigenvalues was too large:
     Diagonalizing with lowered threshold

     Davidson diagonalization with overlap
     ethr =  9.86E-05,  avg # of iterations =  4.7

     total cpu time spent up to now is      252.3 secs

     total energy              =   -6906.76154163 Ry
     estimated scf accuracy    <       0.34392005 Ry

     iteration #  2     ecut=    71.00 Ry     beta= 0.30
     Davidson diagonalization with overlap
     ethr =  1.34E-04,  avg # of iterations =  2.0

     total cpu time spent up to now is      350.8 secs

     total energy              =   -6906.76974704 Ry
     estimated scf accuracy    <       0.05479219 Ry

     iteration #  3     ecut=    71.00 Ry     beta= 0.30
     Davidson diagonalization with overlap
     ethr =  2.14E-05,  avg # of iterations =  4.4

     total cpu time spent up to now is      465.3 secs

     total energy              =   -6906.74680526 Ry
     estimated scf accuracy    <       1.02500688 Ry

     iteration #  4     ecut=    71.00 Ry     beta= 0.30
     Davidson diagonalization with overlap
     ethr =  2.14E-05,  avg # of iterations =  4.1

     total cpu time spent up to now is      565.9 secs

     total energy              =   -6906.78323025 Ry
     estimated scf accuracy    <       0.01091878 Ry

     iteration #  5     ecut=    71.00 Ry     beta= 0.30
     Davidson diagonalization with overlap
     ethr =  4.27E-06,  avg # of iterations =  2.2

     total cpu time spent up to now is      651.7 secs

     total energy              =   -6906.78387623 Ry
     estimated scf accuracy    <       0.00352398 Ry

     iteration #  6     ecut=    71.00 Ry     beta= 0.30
     Davidson diagonalization with overlap
     ethr =  1.38E-06,  avg # of iterations =  2.2

     total cpu time spent up to now is      754.0 secs

     total energy              =   -6906.78424016 Ry
     estimated scf accuracy    <       0.00238325 Ry

     iteration #  7     ecut=    71.00 Ry     beta= 0.30
     Davidson diagonalization with overlap
     ethr =  9.31E-07,  avg # of iterations =  1.0

     total cpu time spent up to now is      834.0 secs

     total energy              =   -6906.78418592 Ry
     estimated scf accuracy    <       0.00042887 Ry

     iteration #  8     ecut=    71.00 Ry     beta= 0.30
     Davidson diagonalization with overlap
     ethr =  1.68E-07,  avg # of iterations =  2.0

     total cpu time spent up to now is      937.6 secs

     total energy              =   -6906.78427476 Ry
     estimated scf accuracy    <       0.00001312 Ry

     iteration #  9     ecut=    71.00 Ry     beta= 0.30
     Davidson diagonalization with overlap
     ethr =  5.13E-09,  avg # of iterations =  2.3

     total cpu time spent up to now is     1040.4 secs

     total energy              =   -6906.78427598 Ry
     estimated scf accuracy    <       0.00000490 Ry

     iteration # 10     ecut=    71.00 Ry     beta= 0.30
     Davidson diagonalization with overlap
     ethr =  1.91E-09,  avg # of iterations =  2.0

     total cpu time spent up to now is     1127.7 secs

     total energy              =   -6906.78427660 Ry
     estimated scf accuracy    <       0.00000388 Ry

     iteration # 11     ecut=    71.00 Ry     beta= 0.30
     Davidson diagonalization with overlap
     ethr =  1.51E-09,  avg # of iterations =  1.0

     total cpu time spent up to now is     1207.8 secs

     total energy              =   -6906.78427683 Ry
     estimated scf accuracy    <       0.00000026 Ry

     iteration # 12     ecut=    71.00 Ry     beta= 0.30
     Davidson diagonalization with overlap
     ethr =  1.01E-10,  avg # of iterations =  2.0

     total cpu time spent up to now is     1309.2 secs

     total energy              =   -6906.78427685 Ry
     estimated scf accuracy    <       0.00000021 Ry

     iteration # 13     ecut=    71.00 Ry     beta= 0.30
     Davidson diagonalization with overlap
     ethr =  8.28E-11,  avg # of iterations =  1.0

     total cpu time spent up to now is     1389.2 secs

     End of self-consistent calculation

     Number of k-points >= 100: set verbosity='high' to print the bands.

     the Fermi energy is    23.7048 ev

!    total energy              =   -6906.78427686 Ry

     total all-electron energy =   -144994.979446 Ry
     estimated scf accuracy    <          8.8E-09 Ry
     smearing contrib. (-TS)   =       0.01217085 Ry
     internal energy E=F+TS    =   -6906.79644771 Ry

     The total energy is F=E-TS. E is the sum of the following terms:
     one-electron contribution =    -476.14515955 Ry
     hartree contribution      =     451.48643113 Ry
     xc contribution           =    -464.33891769 Ry
     ewald contribution        =   -2623.06461692 Ry
     one-center paw contrib.   =   -3794.73418468 Ry

     convergence has been achieved in  13 iterations

     Forces acting on atoms (cartesian axes, Ry/au):

     atom    1 type  1   force =     0.00000137    0.00000079   -0.00001346
     atom    2 type  1   force =     0.00000766    0.00000073   -0.00001496
     atom    3 type  1   force =     0.00000375    0.00000216    0.00001275
     atom    4 type  1   force =     0.00000794   -0.00000461    0.00000976
     atom    5 type  1   force =     0.00000569    0.00000328   -0.00000339
     atom    6 type  1   force =     0.00000447    0.00000627   -0.00001496
     atom    7 type  1   force =     0.00000625    0.00000361    0.00000512
     atom    8 type  1   force =    -0.00000002    0.00000918    0.00000976
     atom    9 type  1   force =     0.00000002   -0.00000918   -0.00000976
     atom   10 type  1   force =    -0.00000625   -0.00000361   -0.00000512
     atom   11 type  1   force =    -0.00000447   -0.00000627    0.00001496
     atom   12 type  1   force =    -0.00000569   -0.00000328    0.00000339
     atom   13 type  1   force =    -0.00000794    0.00000461   -0.00000976
     atom   14 type  1   force =    -0.00000375   -0.00000216   -0.00001275
     atom   15 type  1   force =    -0.00000766   -0.00000073    0.00001496
     atom   16 type  1   force =    -0.00000137   -0.00000079    0.00001346

     Total force =     0.000053     Total SCF correction =     0.000189
     SCF correction compared to forces is large: reduce conv_thr to get better values


     Computing stress (Cartesian axis) and pressure

          total   stress  (Ry/bohr**3)                   (kbar)     P=       36.22
   0.00027615  -0.00000000   0.00000000           40.62       -0.00        0.00
  -0.00000000   0.00027615   0.00000000           -0.00       40.62        0.00
   0.00000000   0.00000000   0.00018634            0.00        0.00       27.41


     BFGS Geometry Optimization
     Energy error            =      0.0E+00
     Gradient error          =      1.5E-05
     Cell gradient error     =      2.8E-04


     number of scf cycles    =   1
     number of bfgs steps    =   0

     enthalpy new            =   -6906.7842768594 Ry

     new trust radius        =       0.0528859815 bohr
     new conv_thr            =       0.0000000100 Ry

     new unit-cell volume =   1494.31007 a.u.^3 (   221.43391 Ang^3 )
     density =     12.12683 g/cm^3

CELL_PARAMETERS (alat= 10.23000000)
   1.006903664  -0.000000107   0.000000076
  -0.503451924   0.872004312   0.000000000
   0.000000120   0.000000069   1.589671157

ATOMIC_POSITIONS (crystal)
Ru            0.1666668780        0.0833333890        0.1249991683
Ru            0.3333340907        0.4166667829        0.3749990759
Ru            0.1666671881        0.0833335441        0.6250007876
Ru            0.3333338160        0.4166661800        0.8750006030
Ru            0.1666674413        0.5833336707        0.1249997908
Ru            0.3333340907        0.9166674078        0.3749990759
Ru            0.1666675142        0.5833337071        0.6250003166
Ru            0.3333338160        0.9166677360        0.8750006030
Ru            0.6666661840        0.0833322640        0.1249993970
Ru            0.8333324858        0.4166662929        0.3749996834
Ru            0.6666659093        0.0833325922        0.6250009241
Ru            0.8333325587        0.4166663293        0.8750002092
Ru            0.6666661840        0.5833338200        0.1249993970
Ru            0.8333328119        0.9166664559        0.3749992124
Ru            0.6666659093        0.5833332171        0.6250009241
Ru            0.8333331220        0.9166666110        0.8750008317



     Writing output data file /scratch/bxp912/ruhcp3.save/
     NEW-OLD atomic charge density approx. for the potential

     Check: negative core charge=   -0.000003
     extrapolated charge  260.66908, renormalised to  256.00000

     total cpu time spent up to now is     1424.8 secs

     Self-consistent Calculation

     iteration #  1     ecut=    71.00 Ry     beta= 0.30
     Davidson diagonalization with overlap
     ethr =  1.00E-06,  avg # of iterations =  6.8

     total cpu time spent up to now is     1633.0 secs

     total energy              =   -6906.43155247 Ry
     estimated scf accuracy    <       0.32284986 Ry

     iteration #  2     ecut=    71.00 Ry     beta= 0.30
     Davidson diagonalization with overlap
     ethr =  1.26E-04,  avg # of iterations =  3.2

     total cpu time spent up to now is     1763.5 secs

     total energy              =   -6906.80954237 Ry
     estimated scf accuracy    <       0.17632773 Ry

     iteration #  3     ecut=    71.00 Ry     beta= 0.30
     Davidson diagonalization with overlap
     ethr =  6.89E-05,  avg # of iterations =  1.1

     total cpu time spent up to now is     1843.5 secs

     total energy              =   -6906.79623931 Ry
     estimated scf accuracy    <       0.07121554 Ry

     iteration #  4     ecut=    71.00 Ry     beta= 0.30
     Davidson diagonalization with overlap
     ethr =  2.78E-05,  avg # of iterations =  1.7

     total cpu time spent up to now is     1928.3 secs

     total energy              =   -6906.78938284 Ry
     estimated scf accuracy    <       0.02996073 Ry

     iteration #  5     ecut=    71.00 Ry     beta= 0.30
     Davidson diagonalization with overlap
     ethr =  1.17E-05,  avg # of iterations =  1.5

     total cpu time spent up to now is     2012.7 secs

     total energy              =   -6906.78835820 Ry
     estimated scf accuracy    <       0.01044616 Ry

     iteration #  6     ecut=    71.00 Ry     beta= 0.30
     Davidson diagonalization with overlap
     ethr =  4.08E-06,  avg # of iterations =  1.9

     total cpu time spent up to now is     2099.0 secs

     total energy              =   -6906.78864589 Ry
     estimated scf accuracy    <       0.00576388 Ry

     iteration #  7     ecut=    71.00 Ry     beta= 0.30
     Davidson diagonalization with overlap
     ethr =  2.25E-06,  avg # of iterations =  1.0

     total cpu time spent up to now is     2178.6 secs

     total energy              =   -6906.78586160 Ry
     estimated scf accuracy    <       0.00612800 Ry

     iteration #  8     ecut=    71.00 Ry     beta= 0.30
     Davidson diagonalization with overlap
     ethr =  2.25E-06,  avg # of iterations =  2.0

     total cpu time spent up to now is     2271.1 secs

     total energy              =   -6906.78550545 Ry
     estimated scf accuracy    <       0.00136488 Ry

     iteration #  9     ecut=    71.00 Ry     beta= 0.30
     Davidson diagonalization with overlap
     ethr =  5.33E-07,  avg # of iterations =  2.2

     total cpu time spent up to now is     2373.0 secs

     total energy              =   -6906.78581188 Ry
     estimated scf accuracy    <       0.00016683 Ry

     iteration # 10     ecut=    71.00 Ry     beta= 0.30
     Davidson diagonalization with overlap
     ethr =  6.52E-08,  avg # of iterations =  2.0

     total cpu time spent up to now is     2481.7 secs

     total energy              =   -6906.78594188 Ry
     estimated scf accuracy    <       0.00059641 Ry

     iteration # 11     ecut=    71.00 Ry     beta= 0.30
     Davidson diagonalization with overlap
     ethr =  6.52E-08,  avg # of iterations =  1.8

     total cpu time spent up to now is     2567.2 secs

     total energy              =   -6906.78539791 Ry
     estimated scf accuracy    <       0.00094375 Ry

     iteration # 12     ecut=    71.00 Ry     beta= 0.30
     Davidson diagonalization with overlap
     ethr =  6.52E-08,  avg # of iterations =  3.2

     total cpu time spent up to now is     2692.1 secs

     total energy              =   -6906.78552526 Ry
     estimated scf accuracy    <       0.00004072 Ry

     iteration # 13     ecut=    71.00 Ry     beta= 0.30
     Davidson diagonalization with overlap
     ethr =  1.59E-08,  avg # of iterations =  2.2

     total cpu time spent up to now is     2802.7 secs

     total energy              =   -6906.78553474 Ry
     estimated scf accuracy    <       0.00000034 Ry

     iteration # 14     ecut=    71.00 Ry     beta= 0.30
     Davidson diagonalization with overlap
     ethr =  1.33E-10,  avg # of iterations =  4.7

     total cpu time spent up to now is     2938.1 secs

     End of self-consistent calculation

     Number of k-points >= 100: set verbosity='high' to print the bands.

     the Fermi energy is    23.1735 ev

!    total energy              =   -6906.78553494 Ry

     total all-electron energy =   -144994.980705 Ry
     estimated scf accuracy    <          2.7E-09 Ry
     smearing contrib. (-TS)   =       0.01316045 Ry
     internal energy E=F+TS    =   -6906.79869539 Ry

     The total energy is F=E-TS. E is the sum of the following terms:
     one-electron contribution =    -499.62644479 Ry
     hartree contribution      =     458.49455183 Ry
     xc contribution           =    -463.97869206 Ry
     ewald contribution        =   -2606.96614207 Ry
     one-center paw contrib.   =   -3794.72196830 Ry

     convergence has been achieved in  14 iterations

     Forces acting on atoms (cartesian axes, Ry/au):

     atom    1 type  1   force =    -0.00000197   -0.00000114    0.00000431
     atom    2 type  1   force =    -0.00000381   -0.00000102    0.00000431
     atom    3 type  1   force =    -0.00000299   -0.00000173   -0.00000506
     atom    4 type  1   force =    -0.00000471    0.00000116   -0.00000208
     atom    5 type  1   force =    -0.00000428   -0.00000247   -0.00000320
     atom    6 type  1   force =    -0.00000279   -0.00000278    0.00000431
     atom    7 type  1   force =    -0.00000353   -0.00000204    0.00000187
     atom    8 type  1   force =    -0.00000135   -0.00000466   -0.00000208
     atom    9 type  1   force =     0.00000135    0.00000466    0.00000208
     atom   10 type  1   force =     0.00000353    0.00000204   -0.00000187
     atom   11 type  1   force =     0.00000279    0.00000278   -0.00000431
     atom   12 type  1   force =     0.00000428    0.00000247    0.00000320
     atom   13 type  1   force =     0.00000471   -0.00000116    0.00000208
     atom   14 type  1   force =     0.00000299    0.00000173    0.00000506
     atom   15 type  1   force =     0.00000381    0.00000102   -0.00000431
     atom   16 type  1   force =     0.00000197    0.00000114   -0.00000431

     Total force =     0.000022     Total SCF correction =     0.000044
     SCF correction compared to forces is large: reduce conv_thr to get better values


     Computing stress (Cartesian axis) and pressure

          total   stress  (Ry/bohr**3)                   (kbar)     P=      -23.03
  -0.00014342   0.00000000  -0.00000000          -21.10        0.00       -0.00
   0.00000000  -0.00014342  -0.00000000            0.00      -21.10       -0.00
  -0.00000000  -0.00000000  -0.00018283           -0.00       -0.00      -26.89

     Energy error            =      1.3E-03
     Gradient error          =      5.1E-06
     Cell gradient error     =      1.8E-04


     number of scf cycles    =   2
     number of bfgs steps    =   1

     enthalpy old            =   -6906.7842768594 Ry
     enthalpy new            =   -6906.7855349402 Ry

     CASE: enthalpy_new < enthalpy_old

     new trust radius        =       0.0216571738 bohr
     new conv_thr            =            1.0E-10 Ry

     new unit-cell volume =   1483.73449 a.u.^3 (   219.86677 Ang^3 )
     density =     12.21326 g/cm^3

CELL_PARAMETERS (alat= 10.23000000)
   1.004742580  -0.000000048   0.000000044
  -0.502371331   0.870132670  -0.000000000
   0.000000070   0.000000040   1.585218095

ATOMIC_POSITIONS (crystal)
Ru            0.1666667198        0.0833333099        0.1249993236
Ru            0.3333338324        0.4166667118        0.3749992298
Ru            0.1666669508        0.0833334254        0.6250006028
Ru            0.3333335761        0.4166662550        0.8750005307
Ru            0.1666671021        0.5833335010        0.1249996651
Ru            0.3333338324        0.9166672206        0.3749992298
Ru            0.1666672376        0.5833335688        0.6250003928
Ru            0.3333335761        0.9166674211        0.8750005307
Ru            0.6666664239        0.0833325789        0.1249994693
Ru            0.8333327624        0.4166664312        0.3749996072
Ru            0.6666661676        0.0833327794        0.6250007702
Ru            0.8333328979        0.4166664990        0.8750003349
Ru            0.6666664239        0.5833337450        0.1249994693
Ru            0.8333330492        0.9166665746        0.3749993972
Ru            0.6666661676        0.5833332882        0.6250007702
Ru            0.8333332802        0.9166666901        0.8750006764



     Writing output data file /scratch/bxp912/ruhcp3.save/
     NEW-OLD atomic charge density approx. for the potential

     Check: negative core charge=   -0.000003
     extrapolated charge  254.17539, renormalised to  256.00000

     total cpu time spent up to now is     2973.7 secs

     Self-consistent Calculation

     iteration #  1     ecut=    71.00 Ry     beta= 0.30
     Davidson diagonalization with overlap
     ethr =  1.00E-06,  avg # of iterations =  5.0

     total cpu time spent up to now is     3137.5 secs

     total energy              =   -6906.73083483 Ry
     estimated scf accuracy    <       0.05217158 Ry

     iteration #  2     ecut=    71.00 Ry     beta= 0.30
     Davidson diagonalization with overlap
     ethr =  2.04E-05,  avg # of iterations =  3.1

     total cpu time spent up to now is     3266.2 secs

     total energy              =   -6906.79004712 Ry
     estimated scf accuracy    <       0.02608548 Ry

     iteration #  3     ecut=    71.00 Ry     beta= 0.30
     Davidson diagonalization with overlap
     ethr =  1.02E-05,  avg # of iterations =  1.1

     total cpu time spent up to now is     3346.0 secs

     total energy              =   -6906.78901011 Ry
     estimated scf accuracy    <       0.01050034 Ry

     iteration #  4     ecut=    71.00 Ry     beta= 0.30
     Davidson diagonalization with overlap
     ethr =  4.10E-06,  avg # of iterations =  1.0

     total cpu time spent up to now is     3426.6 secs

     total energy              =   -6906.78778881 Ry
     estimated scf accuracy    <       0.00629496 Ry

     iteration #  5     ecut=    71.00 Ry     beta= 0.30
     Davidson diagonalization with overlap
     ethr =  2.46E-06,  avg # of iterations =  1.1

     total cpu time spent up to now is     3507.5 secs

     total energy              =   -6906.78766523 Ry
     estimated scf accuracy    <       0.00331078 Ry

     iteration #  6     ecut=    71.00 Ry     beta= 0.30
     Davidson diagonalization with overlap
     ethr =  1.29E-06,  avg # of iterations =  1.0

     total cpu time spent up to now is     3586.9 secs

     total energy              =   -6906.78759988 Ry
     estimated scf accuracy    <       0.00282827 Ry

     iteration #  7     ecut=    71.00 Ry     beta= 0.30
     Davidson diagonalization with overlap
     ethr =  1.10E-06,  avg # of iterations =  1.0

     total cpu time spent up to now is     3667.0 secs

     total energy              =   -6906.78706544 Ry
     estimated scf accuracy    <       0.00259941 Ry

     iteration #  8     ecut=    71.00 Ry     beta= 0.30
     Davidson diagonalization with overlap
     ethr =  1.02E-06,  avg # of iterations =  1.0

     total cpu time spent up to now is     3747.0 secs

     total energy              =   -6906.78694349 Ry
     estimated scf accuracy    <       0.00147039 Ry

     iteration #  9     ecut=    71.00 Ry     beta= 0.30
     Davidson diagonalization with overlap
     ethr =  5.74E-07,  avg # of iterations =  1.0

     total cpu time spent up to now is     3827.2 secs

     total energy              =   -6906.78638984 Ry
     estimated scf accuracy    <       0.00113411 Ry

     iteration # 10     ecut=    71.00 Ry     beta= 0.30
     Davidson diagonalization with overlap
     ethr =  4.43E-07,  avg # of iterations =  2.1

     total cpu time spent up to now is     3924.8 secs

     total energy              =   -6906.78643348 Ry
     estimated scf accuracy    <       0.00020825 Ry

     iteration # 11     ecut=    71.00 Ry     beta= 0.30
     Davidson diagonalization with overlap
     ethr =  8.13E-08,  avg # of iterations =  1.9

     total cpu time spent up to now is     4011.2 secs

     total energy              =   -6906.78644634 Ry
     estimated scf accuracy    <       0.00009000 Ry

     iteration # 12     ecut=    71.00 Ry     beta= 0.30
     Davidson diagonalization with overlap
     ethr =  3.52E-08,  avg # of iterations =  1.0

     total cpu time spent up to now is     4091.1 secs

     total energy              =   -6906.78637909 Ry
     estimated scf accuracy    <       0.00009756 Ry

     iteration # 13     ecut=    71.00 Ry     beta= 0.30
     Davidson diagonalization with overlap
     ethr =  3.52E-08,  avg # of iterations =  2.1

     total cpu time spent up to now is     4201.9 secs

     total energy              =   -6906.78640562 Ry
     estimated scf accuracy    <       0.00000014 Ry

     iteration # 14     ecut=    71.00 Ry     beta= 0.30
     Davidson diagonalization with overlap
     ethr =  5.49E-11,  avg # of iterations =  5.0

     total cpu time spent up to now is     4347.5 secs

     total energy              =   -6906.78640580 Ry
     estimated scf accuracy    <       0.00000003 Ry

     iteration # 15     ecut=    71.00 Ry     beta= 0.30
     Davidson diagonalization with overlap
     ethr =  1.18E-11,  avg # of iterations =  1.7

     total cpu time spent up to now is     4432.0 secs

     total energy              =   -6906.78640578 Ry
     estimated scf accuracy    <       0.00000002 Ry

     iteration # 16     ecut=    71.00 Ry     beta= 0.30
     Davidson diagonalization with overlap
     ethr =  6.48E-12,  avg # of iterations =  2.0

     total cpu time spent up to now is     4531.0 secs

     total energy              =   -6906.78640579 Ry
     estimated scf accuracy    <          1.3E-09 Ry

     iteration # 17     ecut=    71.00 Ry     beta= 0.30
     Davidson diagonalization with overlap
     ethr =  5.26E-13,  avg # of iterations =  1.1

     total cpu time spent up to now is     4612.4 secs

     total energy              =   -6906.78640578 Ry
     estimated scf accuracy    <          1.6E-09 Ry

     iteration # 18     ecut=    71.00 Ry     beta= 0.30
     Davidson diagonalization with overlap
     ethr =  5.26E-13,  avg # of iterations =  2.2

     total cpu time spent up to now is     4727.1 secs

     total energy              =   -6906.78640579 Ry
     estimated scf accuracy    <          3.7E-10 Ry

     iteration # 19     ecut=    71.00 Ry     beta= 0.30
     Davidson diagonalization with overlap
     ethr =  1.46E-13,  avg # of iterations =  2.2

     total cpu time spent up to now is     4841.0 secs

     total energy              =   -6906.78640579 Ry
     estimated scf accuracy    <          6.9E-10 Ry

     iteration # 20     ecut=    71.00 Ry     beta= 0.30
     Davidson diagonalization with overlap
     ethr =  1.46E-13,  avg # of iterations =  3.5

     total cpu time spent up to now is     4971.3 secs

     total energy              =   -6906.78640579 Ry
     estimated scf accuracy    <          7.1E-10 Ry

     iteration # 21     ecut=    71.00 Ry     beta= 0.30
     Davidson diagonalization with overlap
     ethr =  1.46E-13,  avg # of iterations =  3.4

     total cpu time spent up to now is     5100.0 secs

     total energy              =   -6906.78640578 Ry
     estimated scf accuracy    <          2.6E-10 Ry

     iteration # 22     ecut=    71.00 Ry     beta= 0.30
     Davidson diagonalization with overlap
     ethr =  1.02E-13,  avg # of iterations =  2.2

     total cpu time spent up to now is     5214.6 secs

     total energy              =   -6906.78640578 Ry
     estimated scf accuracy    <          1.5E-10 Ry

     iteration # 23     ecut=    71.00 Ry     beta= 0.30
     Davidson diagonalization with overlap
     ethr =  1.00E-13,  avg # of iterations =  1.9

     total cpu time spent up to now is     5301.5 secs

     End of self-consistent calculation

     Number of k-points >= 100: set verbosity='high' to print the bands.

     the Fermi energy is    23.3775 ev

!    total energy              =   -6906.78640578 Ry

     total all-electron energy =   -144994.981575 Ry
     estimated scf accuracy    <          3.9E-11 Ry
     smearing contrib. (-TS)   =       0.01281479 Ry
     internal energy E=F+TS    =   -6906.79922057 Ry

     The total energy is F=E-TS. E is the sum of the following terms:
     one-electron contribution =    -490.64373534 Ry
     hartree contribution      =     455.81760061 Ry
     xc contribution           =    -464.11729567 Ry
     ewald contribution        =   -2613.12914509 Ry
     one-center paw contrib.   =   -3794.72664508 Ry

     convergence has been achieved in  23 iterations

     Forces acting on atoms (cartesian axes, Ry/au):

     atom    1 type  1   force =    -0.00000020   -0.00000011    0.00000376
     atom    2 type  1   force =    -0.00000129   -0.00000011    0.00000409
     atom    3 type  1   force =    -0.00000096   -0.00000055   -0.00000394
     atom    4 type  1   force =    -0.00000177    0.00000151   -0.00000273
     atom    5 type  1   force =    -0.00000146   -0.00000085    0.00000162
     atom    6 type  1   force =    -0.00000074   -0.00000106    0.00000409
     atom    7 type  1   force =    -0.00000124   -0.00000072   -0.00000231
     atom    8 type  1   force =     0.00000043   -0.00000229   -0.00000273
     atom    9 type  1   force =    -0.00000043    0.00000229    0.00000273
     atom   10 type  1   force =     0.00000124    0.00000072    0.00000231
     atom   11 type  1   force =     0.00000074    0.00000106   -0.00000409
     atom   12 type  1   force =     0.00000146    0.00000085   -0.00000162
     atom   13 type  1   force =     0.00000177   -0.00000151    0.00000273
     atom   14 type  1   force =     0.00000096    0.00000055    0.00000394
     atom   15 type  1   force =     0.00000129    0.00000011   -0.00000409
     atom   16 type  1   force =     0.00000020    0.00000011   -0.00000376

     Total force =     0.000015     Total SCF correction =     0.000003
     SCF correction compared to forces is large: reduce conv_thr to get better values


     Computing stress (Cartesian axis) and pressure

          total   stress  (Ry/bohr**3)                   (kbar)     P=       -0.62
  -0.00000090   0.00000000  -0.00000000           -0.13        0.00       -0.00
   0.00000000  -0.00000090  -0.00000000            0.00       -0.13       -0.00
  -0.00000000  -0.00000000  -0.00001081           -0.00       -0.00       -1.59

     Energy error            =      8.7E-04
     Gradient error          =      4.1E-06
     Cell gradient error     =      1.1E-05


     number of scf cycles    =   3
     number of bfgs steps    =   2

     enthalpy old            =   -6906.7855349402 Ry
     enthalpy new            =   -6906.7864057793 Ry

     CASE: enthalpy_new < enthalpy_old

     new trust radius        =       0.0017987932 bohr
     new conv_thr            =            1.0E-10 Ry

     new unit-cell volume =   1483.45134 a.u.^3 (   219.82481 Ang^3 )
     density =     12.21560 g/cm^3

CELL_PARAMETERS (alat= 10.23000000)
   1.004764036  -0.000000011   0.000000012
  -0.502382028   0.870151197  -0.000000000
   0.000000019   0.000000011   1.584847958

ATOMIC_POSITIONS (crystal)
Ru            0.1666666957        0.0833332979        0.1249995597
Ru            0.3333337002        0.4166666998        0.3749994864
Ru            0.1666668254        0.0833333627        0.6250003559
Ru            0.3333334900        0.4166664299        0.8750003588
Ru            0.1666669105        0.5833334053        0.1249997698
Ru            0.3333337002        0.9166671004        0.3749994864
Ru            0.1666670754        0.5833334877        0.6250002451
Ru            0.3333334900        0.9166671602        0.8750003588
Ru            0.6666665100        0.0833328398        0.1249996412
Ru            0.8333329246        0.4166665123        0.3749997549
Ru            0.6666662998        0.0833328996        0.6250005136
Ru            0.8333330895        0.4166665947        0.8750002302
Ru            0.6666665100        0.5833335701        0.1249996412
Ru            0.8333331746        0.9166666373        0.3749996441
Ru            0.6666662998        0.5833333002        0.6250005136
Ru            0.8333333043        0.9166667021        0.8750004403



     Writing output data file /scratch/bxp912/ruhcp3.save/
     NEW-OLD atomic charge density approx. for the potential

     Check: negative core charge=   -0.000003
     extrapolated charge  255.95114, renormalised to  256.00000

     total cpu time spent up to now is     5337.3 secs

     Self-consistent Calculation

     iteration #  1     ecut=    71.00 Ry     beta= 0.30
     Davidson diagonalization with overlap
     ethr =  1.00E-06,  avg # of iterations =  2.0

     Threshold (ethr) on eigenvalues was too large:
     Diagonalizing with lowered threshold

     Davidson diagonalization with overlap
     ethr =  1.31E-08,  avg # of iterations =  1.7

     total cpu time spent up to now is     5536.2 secs

     total energy              =   -6906.78637010 Ry
     estimated scf accuracy    <       0.00003558 Ry

     iteration #  2     ecut=    71.00 Ry     beta= 0.30
     Davidson diagonalization with overlap
     ethr =  1.39E-08,  avg # of iterations =  3.1

     total cpu time spent up to now is     5659.7 secs

     total energy              =   -6906.78641061 Ry
     estimated scf accuracy    <       0.00001800 Ry

     iteration #  3     ecut=    71.00 Ry     beta= 0.30
     Davidson diagonalization with overlap
     ethr =  7.03E-09,  avg # of iterations =  1.0

     total cpu time spent up to now is     5740.0 secs

     total energy              =   -6906.78641065 Ry
     estimated scf accuracy    <       0.00000730 Ry

     iteration #  4     ecut=    71.00 Ry     beta= 0.30
     Davidson diagonalization with overlap
     ethr =  2.85E-09,  avg # of iterations =  1.0

     total cpu time spent up to now is     5819.9 secs

     total energy              =   -6906.78640651 Ry
     estimated scf accuracy    <       0.00000610 Ry

     iteration #  5     ecut=    71.00 Ry     beta= 0.30
     Davidson diagonalization with overlap
     ethr =  2.38E-09,  avg # of iterations =  2.3

     total cpu time spent up to now is     5924.5 secs

     total energy              =   -6906.78640786 Ry
     estimated scf accuracy    <       0.00000004 Ry

     iteration #  6     ecut=    71.00 Ry     beta= 0.30
     Davidson diagonalization with overlap
     ethr =  1.37E-11,  avg # of iterations =  5.0

     total cpu time spent up to now is     6080.7 secs

     total energy              =   -6906.78640791 Ry
     estimated scf accuracy    <       0.00000039 Ry

     iteration #  7     ecut=    71.00 Ry     beta= 0.30
     Davidson diagonalization with overlap
     ethr =  1.37E-11,  avg # of iterations =  2.1

     total cpu time spent up to now is     6190.4 secs

     total energy              =   -6906.78640788 Ry
     estimated scf accuracy    <       0.00000017 Ry

     iteration #  8     ecut=    71.00 Ry     beta= 0.30
     Davidson diagonalization with overlap
     ethr =  1.37E-11,  avg # of iterations =  2.0

     total cpu time spent up to now is     6282.9 secs

     total energy              =   -6906.78640779 Ry
     estimated scf accuracy    <       0.00000009 Ry

     iteration #  9     ecut=    71.00 Ry     beta= 0.30
     Davidson diagonalization with overlap
     ethr =  1.37E-11,  avg # of iterations =  2.8

     total cpu time spent up to now is     6402.2 secs

     total energy              =   -6906.78640782 Ry
     estimated scf accuracy    <          2.9E-09 Ry

     iteration # 10     ecut=    71.00 Ry     beta= 0.30
     Davidson diagonalization with overlap
     ethr =  1.12E-12,  avg # of iterations =  2.1

     total cpu time spent up to now is     6491.7 secs

     total energy              =   -6906.78640782 Ry
     estimated scf accuracy    <          5.3E-09 Ry

     iteration # 11     ecut=    71.00 Ry     beta= 0.30
     Davidson diagonalization with overlap
     ethr =  1.12E-12,  avg # of iterations =  1.0

     total cpu time spent up to now is     6571.2 secs

     total energy              =   -6906.78640781 Ry
     estimated scf accuracy    <          5.3E-09 Ry

     iteration # 12     ecut=    71.00 Ry     beta= 0.30
     Davidson diagonalization with overlap
     ethr =  1.12E-12,  avg # of iterations =  2.0

     total cpu time spent up to now is     6671.8 secs

     total energy              =   -6906.78640781 Ry
     estimated scf accuracy    <          6.9E-10 Ry

     iteration # 13     ecut=    71.00 Ry     beta= 0.30
     Davidson diagonalization with overlap
     ethr =  2.69E-13,  avg # of iterations =  2.8

     total cpu time spent up to now is     6789.6 secs

     End of self-consistent calculation

     Number of k-points >= 100: set verbosity='high' to print the bands.

     the Fermi energy is    23.3830 ev

!    total energy              =   -6906.78640781 Ry

     total all-electron energy =   -144994.981577 Ry
     estimated scf accuracy    <          1.8E-11 Ry
     smearing contrib. (-TS)   =       0.01281463 Ry
     internal energy E=F+TS    =   -6906.79922243 Ry

     The total energy is F=E-TS. E is the sum of the following terms:
     one-electron contribution =    -490.41350328 Ry
     hartree contribution      =     455.75135241 Ry
     xc contribution           =    -464.12126066 Ry
     ewald contribution        =   -2613.28902510 Ry
     one-center paw contrib.   =   -3794.72678580 Ry

     convergence has been achieved in  13 iterations

     Forces acting on atoms (cartesian axes, Ry/au):

     atom    1 type  1   force =    -0.00000019   -0.00000011    0.00000247
     atom    2 type  1   force =    -0.00000087   -0.00000001    0.00000267
     atom    3 type  1   force =    -0.00000059   -0.00000034   -0.00000235
     atom    4 type  1   force =    -0.00000102    0.00000089   -0.00000188
     atom    5 type  1   force =    -0.00000083   -0.00000048    0.00000123
     atom    6 type  1   force =    -0.00000045   -0.00000075    0.00000267
     atom    7 type  1   force =    -0.00000087   -0.00000050   -0.00000150
     atom    8 type  1   force =     0.00000026   -0.00000133   -0.00000188
     atom    9 type  1   force =    -0.00000026    0.00000133    0.00000188
     atom   10 type  1   force =     0.00000087    0.00000050    0.00000150
     atom   11 type  1   force =     0.00000045    0.00000075   -0.00000267
     atom   12 type  1   force =     0.00000083    0.00000048   -0.00000123
     atom   13 type  1   force =     0.00000102   -0.00000089    0.00000188
     atom   14 type  1   force =     0.00000059    0.00000034    0.00000235
     atom   15 type  1   force =     0.00000087    0.00000001   -0.00000267
     atom   16 type  1   force =     0.00000019    0.00000011   -0.00000247

     Total force =     0.000009     Total SCF correction =     0.000000


     Computing stress (Cartesian axis) and pressure

          total   stress  (Ry/bohr**3)                   (kbar)     P=        0.04
   0.00000081   0.00000000  -0.00000000            0.12        0.00       -0.00
   0.00000000   0.00000081  -0.00000000            0.00        0.12       -0.00
  -0.00000000  -0.00000000  -0.00000084           -0.00       -0.00       -0.12

     Energy error            =      2.0E-06
     Gradient error          =      2.7E-06
     Cell gradient error     =      8.4E-07


     bfgs converged in   4 scf cycles and   3 bfgs steps
     (criteria: energy <  1.0E-04 Ry, force <  1.0E-03Ry/Bohr, cell <  5.0E-01kbar)

     End of BFGS Geometry Optimization

     Final enthalpy =   -6906.7864078084 Ry

     File /scratch/bxp912/ruhcp3.bfgs deleted, as requested
Begin final coordinates
     new unit-cell volume =   1483.45134 a.u.^3 (   219.82481 Ang^3 )
     density =     12.21560 g/cm^3

CELL_PARAMETERS (alat= 10.23000000)
   1.004764036  -0.000000011   0.000000012
  -0.502382028   0.870151197  -0.000000000
   0.000000019   0.000000011   1.584847958

ATOMIC_POSITIONS (crystal)
Ru            0.1666666957        0.0833332979        0.1249995597
Ru            0.3333337002        0.4166666998        0.3749994864
Ru            0.1666668254        0.0833333627        0.6250003559
Ru            0.3333334900        0.4166664299        0.8750003588
Ru            0.1666669105        0.5833334053        0.1249997698
Ru            0.3333337002        0.9166671004        0.3749994864
Ru            0.1666670754        0.5833334877        0.6250002451
Ru            0.3333334900        0.9166671602        0.8750003588
Ru            0.6666665100        0.0833328398        0.1249996412
Ru            0.8333329246        0.4166665123        0.3749997549
Ru            0.6666662998        0.0833328996        0.6250005136
Ru            0.8333330895        0.4166665947        0.8750002302
Ru            0.6666665100        0.5833335701        0.1249996412
Ru            0.8333331746        0.9166666373        0.3749996441
Ru            0.6666662998        0.5833333002        0.6250005136
Ru            0.8333333043        0.9166667021        0.8750004403
End final coordinates



     Writing output data file /scratch/bxp912/ruhcp3.save/

     Final scf calculation at the relaxed structure.
     The G-vectors are recalculated for the final unit cell
     Results may differ from those at the preceding step.
 
     Parallelization info
     --------------------
     sticks:   dense  smooth     PW     G-vecs:    dense   smooth      PW
     Min          43      28      8                 3101     1660     256
     Max          44      29      9                 3110     1673     265
     Sum        3115    2065    595               223493   120039   18665
 


     bravais-lattice index     =            4
     lattice parameter (alat)  =      10.2300  a.u.
     unit-cell volume          =    1483.4513 (a.u.)^3
     number of atoms/cell      =           16
     number of atomic types    =            1
     number of electrons       =       256.00
     number of Kohn-Sham states=          154
     kinetic-energy cutoff     =      71.0000  Ry
     charge density cutoff     =     430.0000  Ry
     scf convergence threshold =      1.0E-10
     mixing beta               =       0.3000
     number of iterations used =           10  plain     mixing
     press convergence thresh. =      5.0E-01
     Exchange-correlation= SLA  PW   PBX  PBC
                           (   1   4   3   4   0   0   0)

     celldm(1)=  10.230000  celldm(2)=   0.000000  celldm(3)=   1.582300
     celldm(4)=   0.000000  celldm(5)=   0.000000  celldm(6)=   0.000000

     crystal axes: (cart. coord. in units of alat)
               a(1) = (   1.004764  -0.000000   0.000000 )  
               a(2) = (  -0.502382   0.870151  -0.000000 )  
               a(3) = (   0.000000   0.000000   1.584848 )  

     reciprocal axes: (cart. coord. in units 2 pi/alat)
               b(1) = (  0.995259  0.574613 -0.000000 )  
               b(2) = (  0.000000  1.149226 -0.000000 )  
               b(3) = ( -0.000000 -0.000000  0.630975 )  


     PseudoPot. # 1 for Ru read from file:
     /rds/homes/b/bxp912/pp/Ru.pbe-spn-kjpaw_psl.1.0.0.UPF
     MD5 check sum: 0ae1f594dea09af7be8575c3a481d1ae
     Pseudo is Projector augmented-wave + core cor, Zval = 16.0
     Generated using "atomic" code by A. Dal Corso  v.5.1
     Shape of augmentation charge: PSQ
     Using radial grid of 1233 points,  6 beta functions with: 
                l(1) =   0
                l(2) =   0
                l(3) =   1
                l(4) =   1
                l(5) =   2
                l(6) =   2
     Q(r) pseudized with 0 coefficients 


     atomic species   valence    mass     pseudopotential
        Ru            16.00   101.07000     Ru( 1.00)

      4 Sym. Ops., with inversion, found



   Cartesian axes

     site n.     atom                  positions (alat units)
         1           Ru  tau(   1) = (   0.1255956   0.0725126   0.1981053  )
         2           Ru  tau(   2) = (   0.1255959   0.3625630   0.5943172  )
         3           Ru  tau(   3) = (   0.1255957   0.0725126   0.9905305  )
         4           Ru  tau(   4) = (   0.1255958   0.3625628   1.3867425  )
         5           Ru  tau(   5) = (  -0.1255953   0.5075883   0.1981056  )
         6           Ru  tau(   6) = (  -0.1255954   0.7976390   0.5943172  )
         7           Ru  tau(   7) = (  -0.1255952   0.5075883   0.9905304  )
         8           Ru  tau(   8) = (  -0.1255956   0.7976390   1.3867425  )
         9           Ru  tau(   9) = (   0.6279776   0.0725122   0.1981054  )
        10           Ru  tau(  10) = (   0.6279772   0.3625629   0.5943176  )
        11           Ru  tau(  11) = (   0.6279774   0.0725122   0.9905308  )
        12           Ru  tau(  12) = (   0.6279773   0.3625629   1.3867423  )
        13           Ru  tau(  13) = (   0.3767862   0.5075884   0.1981054  )
        14           Ru  tau(  14) = (   0.3767864   0.7976386   0.5943174  )
        15           Ru  tau(  15) = (   0.3767862   0.5075882   0.9905308  )
        16           Ru  tau(  16) = (   0.3767865   0.7976386   1.3867427  )

     number of k points=   378  Marzari-Vanderbilt smearing, width (Ry)=  0.0400

     Number of k-points >= 100: set verbosity='high' to print them.

     Dense  grid:   223493 G-vectors     FFT dimensions: (  72,  72, 108)

     Smooth grid:   120039 G-vectors     FFT dimensions: (  60,  60,  90)

     Estimated max dynamical RAM per process >     202.77 MB

     Estimated total dynamical RAM >      14.26 GB

     Check: negative core charge=   -0.000002

     Initial potential from superposition of free atoms

     starting charge  255.98980, renormalised to  256.00000
     Starting wfcs are  160 randomized atomic wfcs
     Checking if some PAW data can be deallocated... 

     total cpu time spent up to now is     6854.1 secs

     Self-consistent Calculation

     iteration #  1     ecut=    71.00 Ry     beta= 0.30
     Davidson diagonalization with overlap
     c_bands:  1 eigenvalues not converged
     c_bands:  1 eigenvalues not converged
     c_bands:  1 eigenvalues not converged
     c_bands:  1 eigenvalues not converged
     c_bands:  1 eigenvalues not converged
     c_bands:  1 eigenvalues not converged
     c_bands:  1 eigenvalues not converged
     c_bands:  1 eigenvalues not converged
     c_bands:  1 eigenvalues not converged
     c_bands:  1 eigenvalues not converged
     c_bands:  1 eigenvalues not converged
     c_bands:  1 eigenvalues not converged
     c_bands:  1 eigenvalues not converged
     c_bands:  1 eigenvalues not converged
     c_bands:  1 eigenvalues not converged
     c_bands:  1 eigenvalues not converged
     c_bands:  1 eigenvalues not converged
     c_bands:  1 eigenvalues not converged
     c_bands:  1 eigenvalues not converged
     c_bands:  1 eigenvalues not converged
     c_bands:  1 eigenvalues not converged
     c_bands:  1 eigenvalues not converged
     c_bands:  1 eigenvalues not converged
     c_bands:  1 eigenvalues not converged
     c_bands:  1 eigenvalues not converged
     c_bands:  1 eigenvalues not converged
     c_bands:  1 eigenvalues not converged
     c_bands:  1 eigenvalues not converged
     c_bands:  1 eigenvalues not converged
     ethr =  1.00E-06,  avg # of iterations = 13.4

     total cpu time spent up to now is     7150.7 secs

     total energy              =   -6906.76140151 Ry
     estimated scf accuracy    <       0.35164971 Ry

     iteration #  2     ecut=    71.00 Ry     beta= 0.30
     Davidson diagonalization with overlap
     ethr =  1.37E-04,  avg # of iterations =  2.0

     total cpu time spent up to now is     7248.5 secs

     total energy              =   -6906.77790329 Ry
     estimated scf accuracy    <       0.04319372 Ry

     iteration #  3     ecut=    71.00 Ry     beta= 0.30
     Davidson diagonalization with overlap
     ethr =  1.69E-05,  avg # of iterations =  2.3

     total cpu time spent up to now is     7350.3 secs

     total energy              =   -6906.77982157 Ry
     estimated scf accuracy    <       0.18258269 Ry

     iteration #  4     ecut=    71.00 Ry     beta= 0.30
     Davidson diagonalization with overlap
     ethr =  1.69E-05,  avg # of iterations =  1.5

     total cpu time spent up to now is     7434.2 secs

     total energy              =   -6906.78654183 Ry
     estimated scf accuracy    <       0.00558814 Ry

     iteration #  5     ecut=    71.00 Ry     beta= 0.30
     Davidson diagonalization with overlap
     ethr =  2.18E-06,  avg # of iterations =  2.0

     total cpu time spent up to now is     7520.5 secs

     total energy              =   -6906.78676991 Ry
     estimated scf accuracy    <       0.00577722 Ry

     iteration #  6     ecut=    71.00 Ry     beta= 0.30
     Davidson diagonalization with overlap
     ethr =  2.18E-06,  avg # of iterations =  1.9

     total cpu time spent up to now is     7605.5 secs

     total energy              =   -6906.78718142 Ry
     estimated scf accuracy    <       0.00058693 Ry

     iteration #  7     ecut=    71.00 Ry     beta= 0.30
     Davidson diagonalization with overlap
     ethr =  2.29E-07,  avg # of iterations =  2.0

     total cpu time spent up to now is     7692.7 secs

     total energy              =   -6906.78717685 Ry
     estimated scf accuracy    <       0.00035183 Ry

     iteration #  8     ecut=    71.00 Ry     beta= 0.30
     Davidson diagonalization with overlap
     ethr =  1.37E-07,  avg # of iterations =  2.0

     total cpu time spent up to now is     7786.4 secs

     total energy              =   -6906.78722031 Ry
     estimated scf accuracy    <       0.00001377 Ry

     iteration #  9     ecut=    71.00 Ry     beta= 0.30
     Davidson diagonalization with overlap
     ethr =  5.38E-09,  avg # of iterations =  2.1

     total cpu time spent up to now is     7884.0 secs

     total energy              =   -6906.78721998 Ry
     estimated scf accuracy    <       0.00003357 Ry

     iteration # 10     ecut=    71.00 Ry     beta= 0.30
     Davidson diagonalization with overlap
     ethr =  5.38E-09,  avg # of iterations =  1.1

     total cpu time spent up to now is     7963.2 secs

     total energy              =   -6906.78722204 Ry
     estimated scf accuracy    <       0.00000180 Ry

     iteration # 11     ecut=    71.00 Ry     beta= 0.30
     Davidson diagonalization with overlap
     ethr =  7.03E-10,  avg # of iterations =  2.0

     total cpu time spent up to now is     8062.3 secs

     total energy              =   -6906.78722229 Ry
     estimated scf accuracy    <       0.00000043 Ry

     iteration # 12     ecut=    71.00 Ry     beta= 0.30
     Davidson diagonalization with overlap
     ethr =  1.66E-10,  avg # of iterations =  1.5

     total cpu time spent up to now is     8145.4 secs

     total energy              =   -6906.78722232 Ry
     estimated scf accuracy    <       0.00000028 Ry

     iteration # 13     ecut=    71.00 Ry     beta= 0.30
     Davidson diagonalization with overlap
     ethr =  1.11E-10,  avg # of iterations =  1.0

     total cpu time spent up to now is     8224.4 secs

     total energy              =   -6906.78722233 Ry
     estimated scf accuracy    <          7.9E-09 Ry

     iteration # 14     ecut=    71.00 Ry     beta= 0.30
     Davidson diagonalization with overlap
     ethr =  3.08E-12,  avg # of iterations =  2.2

     total cpu time spent up to now is     8337.7 secs

     total energy              =   -6906.78722233 Ry
     estimated scf accuracy    <          8.9E-10 Ry

     iteration # 15     ecut=    71.00 Ry     beta= 0.30
     Davidson diagonalization with overlap
     ethr =  3.48E-13,  avg # of iterations =  2.0

     total cpu time spent up to now is     8424.9 secs

     total energy              =   -6906.78722233 Ry
     estimated scf accuracy    <          1.1E-09 Ry

     iteration # 16     ecut=    71.00 Ry     beta= 0.30
     Davidson diagonalization with overlap
     ethr =  3.48E-13,  avg # of iterations =  1.2

     total cpu time spent up to now is     8505.0 secs

     total energy              =   -6906.78722233 Ry
     estimated scf accuracy    <          4.3E-10 Ry

     iteration # 17     ecut=    71.00 Ry     beta= 0.30
     Davidson diagonalization with overlap
     ethr =  1.68E-13,  avg # of iterations =  1.0

     total cpu time spent up to now is     8583.8 secs

     End of self-consistent calculation

     Number of k-points >= 100: set verbosity='high' to print the bands.

     the Fermi energy is    23.3830 ev

!    total energy              =   -6906.78722233 Ry

     total all-electron energy =   -144994.982392 Ry
     estimated scf accuracy    <          1.5E-11 Ry
     smearing contrib. (-TS)   =       0.01281469 Ry
     internal energy E=F+TS    =   -6906.80003702 Ry

     The total energy is F=E-TS. E is the sum of the following terms:
     one-electron contribution =    -490.41633060 Ry
     hartree contribution      =     455.75160415 Ry
     xc contribution           =    -464.12033563 Ry
     ewald contribution        =   -2613.28902510 Ry
     one-center paw contrib.   =   -3794.72594984 Ry

     convergence has been achieved in  17 iterations

     Forces acting on atoms (cartesian axes, Ry/au):

     atom    1 type  1   force =    -0.00000016   -0.00000009    0.00000330
     atom    2 type  1   force =    -0.00000083    0.00000019    0.00000347
     atom    3 type  1   force =    -0.00000043   -0.00000025   -0.00000289
     atom    4 type  1   force =    -0.00000095    0.00000094   -0.00000279
     atom    5 type  1   force =    -0.00000073   -0.00000042    0.00000201
     atom    6 type  1   force =    -0.00000025   -0.00000081    0.00000347
     atom    7 type  1   force =    -0.00000085   -0.00000049   -0.00000202
     atom    8 type  1   force =     0.00000034   -0.00000129   -0.00000279
     atom    9 type  1   force =    -0.00000034    0.00000129    0.00000279
     atom   10 type  1   force =     0.00000085    0.00000049    0.00000202
     atom   11 type  1   force =     0.00000025    0.00000081   -0.00000347
     atom   12 type  1   force =     0.00000073    0.00000042   -0.00000201
     atom   13 type  1   force =     0.00000095   -0.00000094    0.00000279
     atom   14 type  1   force =     0.00000043    0.00000025    0.00000289
     atom   15 type  1   force =     0.00000083   -0.00000019   -0.00000347
     atom   16 type  1   force =     0.00000016    0.00000009   -0.00000330

     Total force =     0.000012     Total SCF correction =     0.000013
     SCF correction compared to forces is large: reduce conv_thr to get better values


     Computing stress (Cartesian axis) and pressure

          total   stress  (Ry/bohr**3)                   (kbar)     P=        0.35
   0.00000326   0.00000000  -0.00000000            0.48        0.00       -0.00
   0.00000000   0.00000326  -0.00000000            0.00        0.48       -0.00
  -0.00000000  -0.00000000   0.00000064           -0.00       -0.00        0.09


     Writing output data file /scratch/bxp912/ruhcp3.save/
 
     init_run     :     62.89s CPU     64.14s WALL (       2 calls)
     electrons    :   8257.70s CPU   8377.39s WALL (       5 calls)
     update_pot   :      0.60s CPU      0.63s WALL (       3 calls)
     forces       :     56.90s CPU     57.32s WALL (       5 calls)
     stress       :    106.17s CPU    106.71s WALL (       5 calls)

     Called by init_run:
     wfcinit      :     62.16s CPU     63.29s WALL (       2 calls)
     potinit      :      0.24s CPU      0.26s WALL (       2 calls)
     hinit0       :      0.23s CPU      0.24s WALL (       2 calls)

     Called by electrons:
     c_bands      :   7194.53s CPU   7294.78s WALL (      82 calls)
     sum_band     :   1056.77s CPU   1075.19s WALL (      82 calls)
     v_of_rho     :      0.53s CPU      0.55s WALL (      85 calls)
     newd         :      0.87s CPU      1.26s WALL (      85 calls)
     PAW_pot      :      5.20s CPU      5.75s WALL (      88 calls)
     mix_rho      :      0.18s CPU      0.21s WALL (      82 calls)

     Called by c_bands:
     init_us_2    :     33.42s CPU     35.28s WALL (   67662 calls)
     cegterg      :   7077.89s CPU   7174.88s WALL (   30996 calls)

     Called by *egterg:
     cdiaghg      :    969.19s CPU    974.48s WALL (  100841 calls)
     h_psi        :   4667.09s CPU   4748.48s WALL (  103487 calls)
     s_psi        :    140.57s CPU    142.00s WALL (  103487 calls)
     g_psi        :      5.36s CPU      5.40s WALL (   71735 calls)

     Called by h_psi:
     h_psi:calbec :    386.90s CPU    390.12s WALL (  103487 calls)
     vloc_psi     :   4109.12s CPU   4185.64s WALL (  103487 calls)
     add_vuspsi   :    158.70s CPU    160.44s WALL (  103487 calls)

     General routines
     calbec       :    602.36s CPU    607.40s WALL (  145067 calls)
     fft          :      0.62s CPU      0.66s WALL (    1225 calls)
     ffts         :      0.07s CPU      0.08s WALL (     167 calls)
     fftw         :   4821.14s CPU   4909.77s WALL (28428084 calls)
     interpolate  :      0.10s CPU      0.13s WALL (      85 calls)
 
     Parallel routines
     fft_scatt_xy :    279.27s CPU    284.79s WALL (28429476 calls)
     fft_scatt_yz :   4096.28s CPU   4173.42s WALL (28429476 calls)
 
     PWSCF        :      2h22m CPU      2h24m WALL

 
   This run was terminated on:  16:35:43  14Mar2022            

=------------------------------------------------------------------------------=
   JOB DONE.
=------------------------------------------------------------------------------=
