
     Program PWSCF v.6.7MaX starts on 23Nov2021 at 10:11:59 

     This program is part of the open-source Quantum ESPRESSO suite
     for quantum simulation of materials; please cite
         "P. Giannozzi et al., J. Phys.:Condens. Matter 21 395502 (2009);
         "P. Giannozzi et al., J. Phys.:Condens. Matter 29 465901 (2017);
          URL http://www.quantum-espresso.org", 
     in publications or presentations arising from this work. More details at
     http://www.quantum-espresso.org/quote

     Parallel version (MPI & OpenMP), running on      72 processor cores
     Number of MPI processes:                72
     Threads/MPI process:                     1

     MPI processes distributed on     1 nodes
     R & G space division:  proc/nbgrp/npool/nimage =      72
     Reading input from /rds/homes/b/bxp912/jobs/20211014_ru_eos/wd/relax/relax.in

     Current dimensions of program PWSCF are:
     Max number of different atomic species (ntypx) = 10
     Max number of k-points (npk) =  40000
     Max angular momentum in pseudopotentials (lmaxx) =  3
     file Ru.pbe-spn-kjpaw_psl.1.0.0.UPF: wavefunction(s)  4D renormalized

     Subspace diagonalization in iterative solution of the eigenvalue problem:
     one sub-group per band group will be used
     ELPA distributed-memory algorithm (size of sub-group:  8*  8 procs)

     Found symmetry operation: I + (  0.2500  0.2500  0.0000)
     This is a supercell, fractional translations are disabled
     Message from routine setup:
     using ibrav=0 with symmetry is DISCOURAGED, use correct ibrav instead
 
     Parallelization info
     --------------------
     sticks:   dense  smooth     PW     G-vecs:    dense   smooth      PW
     Min         108      71     19                 7234     3877     547
     Max         109      72     20                 7241     3884     554
     Sum        7809    5177   1405               521019   279449   39607
 


     bravais-lattice index     =            0
     lattice parameter (alat)  =      15.1200  a.u.
     unit-cell volume          =    3456.6497 (a.u.)^3
     number of atoms/cell      =           32
     number of atomic types    =            1
     number of electrons       =       512.00
     number of Kohn-Sham states=          307
     kinetic-energy cutoff     =      71.0000  Ry
     charge density cutoff     =     430.0000  Ry
     scf convergence threshold =      1.0E-06
     mixing beta               =       0.1000
     number of iterations used =           10  plain     mixing
     energy convergence thresh.=      1.0E-04
     force convergence thresh. =      1.0E-03
     press convergence thresh. =      5.0E-01
     Exchange-correlation= SLA  PW   PBX  PBC
                           (   1   4   3   4   0   0   0)
     nstep                     =           60


     celldm(1)=  15.120000  celldm(2)=   0.000000  celldm(3)=   0.000000
     celldm(4)=   0.000000  celldm(5)=   0.000000  celldm(6)=   0.000000

     crystal axes: (cart. coord. in units of alat)
               a(1) = (   1.000000   0.000000   0.000000 )  
               a(2) = (   0.000000   1.000000   0.000000 )  
               a(3) = (   0.000000   0.000000   1.000000 )  

     reciprocal axes: (cart. coord. in units 2 pi/alat)
               b(1) = (  1.000000  0.000000  0.000000 )  
               b(2) = (  0.000000  1.000000  0.000000 )  
               b(3) = (  0.000000  0.000000  1.000000 )  


     PseudoPot. # 1 for Ru read from file:
     /rds/homes/b/bxp912/pp/Ru.pbe-spn-kjpaw_psl.1.0.0.UPF
     MD5 check sum: 0ae1f594dea09af7be8575c3a481d1ae
     Pseudo is Projector augmented-wave + core cor, Zval = 16.0
     Generated using "atomic" code by A. Dal Corso  v.5.1
     Shape of augmentation charge: PSQ
     Using radial grid of 1233 points,  6 beta functions with: 
                l(1) =   0
                l(2) =   0
                l(3) =   1
                l(4) =   1
                l(5) =   2
                l(6) =   2
     Q(r) pseudized with 0 coefficients 


     atomic species   valence    mass     pseudopotential
        Ru            16.00   101.07000     Ru( 1.00)

     48 Sym. Ops., with inversion, found



   Cartesian axes

     site n.     atom                  positions (alat units)
         1           Ru  tau(   1) = (   0.0000000   0.0000000   0.0000000  )
         2           Ru  tau(   2) = (   0.2500000   0.2500000   0.0000000  )
         3           Ru  tau(   3) = (   0.2500000   0.0000000   0.2500000  )
         4           Ru  tau(   4) = (   0.0000000   0.2500000   0.2500000  )
         5           Ru  tau(   5) = (   0.0000000   0.0000000   0.5000000  )
         6           Ru  tau(   6) = (   0.2500000   0.2500000   0.5000000  )
         7           Ru  tau(   7) = (   0.2500000   0.0000000   0.7500000  )
         8           Ru  tau(   8) = (   0.0000000   0.2500000   0.7500000  )
         9           Ru  tau(   9) = (   0.0000000   0.5000000   0.0000000  )
        10           Ru  tau(  10) = (   0.2500000   0.7500000   0.0000000  )
        11           Ru  tau(  11) = (   0.2500000   0.5000000   0.2500000  )
        12           Ru  tau(  12) = (   0.0000000   0.7500000   0.2500000  )
        13           Ru  tau(  13) = (   0.0000000   0.5000000   0.5000000  )
        14           Ru  tau(  14) = (   0.2500000   0.7500000   0.5000000  )
        15           Ru  tau(  15) = (   0.2500000   0.5000000   0.7500000  )
        16           Ru  tau(  16) = (   0.0000000   0.7500000   0.7500000  )
        17           Ru  tau(  17) = (   0.5000000   0.0000000   0.0000000  )
        18           Ru  tau(  18) = (   0.7500000   0.2500000   0.0000000  )
        19           Ru  tau(  19) = (   0.7500000   0.0000000   0.2500000  )
        20           Ru  tau(  20) = (   0.5000000   0.2500000   0.2500000  )
        21           Ru  tau(  21) = (   0.5000000   0.0000000   0.5000000  )
        22           Ru  tau(  22) = (   0.7500000   0.2500000   0.5000000  )
        23           Ru  tau(  23) = (   0.7500000   0.0000000   0.7500000  )
        24           Ru  tau(  24) = (   0.5000000   0.2500000   0.7500000  )
        25           Ru  tau(  25) = (   0.5000000   0.5000000   0.0000000  )
        26           Ru  tau(  26) = (   0.7500000   0.7500000   0.0000000  )
        27           Ru  tau(  27) = (   0.7500000   0.5000000   0.2500000  )
        28           Ru  tau(  28) = (   0.5000000   0.7500000   0.2500000  )
        29           Ru  tau(  29) = (   0.5000000   0.5000000   0.5000000  )
        30           Ru  tau(  30) = (   0.7500000   0.7500000   0.5000000  )
        31           Ru  tau(  31) = (   0.7500000   0.5000000   0.7500000  )
        32           Ru  tau(  32) = (   0.5000000   0.7500000   0.7500000  )

     number of k points=    35  Marzari-Vanderbilt smearing, width (Ry)=  0.0400
                       cart. coord. in units 2pi/alat
        k(    1) = (   0.0555556   0.0555556   0.0555556), wk =   0.0219479
        k(    2) = (   0.0555556   0.0555556   0.1666667), wk =   0.0658436
        k(    3) = (   0.0555556   0.0555556   0.2777778), wk =   0.0658436
        k(    4) = (   0.0555556   0.0555556   0.3888889), wk =   0.0658436
        k(    5) = (   0.0555556   0.0555556  -0.5000000), wk =   0.0329218
        k(    6) = (   0.0555556   0.1666667   0.1666667), wk =   0.0658436
        k(    7) = (   0.0555556   0.1666667   0.2777778), wk =   0.1316872
        k(    8) = (   0.0555556   0.1666667   0.3888889), wk =   0.1316872
        k(    9) = (   0.0555556   0.1666667  -0.5000000), wk =   0.0658436
        k(   10) = (   0.0555556   0.2777778   0.2777778), wk =   0.0658436
        k(   11) = (   0.0555556   0.2777778   0.3888889), wk =   0.1316872
        k(   12) = (   0.0555556   0.2777778  -0.5000000), wk =   0.0658436
        k(   13) = (   0.0555556   0.3888889   0.3888889), wk =   0.0658436
        k(   14) = (   0.0555556   0.3888889  -0.5000000), wk =   0.0658436
        k(   15) = (   0.0555556  -0.5000000  -0.5000000), wk =   0.0164609
        k(   16) = (   0.1666667   0.1666667   0.1666667), wk =   0.0219479
        k(   17) = (   0.1666667   0.1666667   0.2777778), wk =   0.0658436
        k(   18) = (   0.1666667   0.1666667   0.3888889), wk =   0.0658436
        k(   19) = (   0.1666667   0.1666667  -0.5000000), wk =   0.0329218
        k(   20) = (   0.1666667   0.2777778   0.2777778), wk =   0.0658436
        k(   21) = (   0.1666667   0.2777778   0.3888889), wk =   0.1316872
        k(   22) = (   0.1666667   0.2777778  -0.5000000), wk =   0.0658436
        k(   23) = (   0.1666667   0.3888889   0.3888889), wk =   0.0658436
        k(   24) = (   0.1666667   0.3888889  -0.5000000), wk =   0.0658436
        k(   25) = (   0.1666667  -0.5000000  -0.5000000), wk =   0.0164609
        k(   26) = (   0.2777778   0.2777778   0.2777778), wk =   0.0219479
        k(   27) = (   0.2777778   0.2777778   0.3888889), wk =   0.0658436
        k(   28) = (   0.2777778   0.2777778  -0.5000000), wk =   0.0329218
        k(   29) = (   0.2777778   0.3888889   0.3888889), wk =   0.0658436
        k(   30) = (   0.2777778   0.3888889  -0.5000000), wk =   0.0658436
        k(   31) = (   0.2777778  -0.5000000  -0.5000000), wk =   0.0164609
        k(   32) = (   0.3888889   0.3888889   0.3888889), wk =   0.0219479
        k(   33) = (   0.3888889   0.3888889  -0.5000000), wk =   0.0329218
        k(   34) = (   0.3888889  -0.5000000  -0.5000000), wk =   0.0164609
        k(   35) = (  -0.5000000  -0.5000000  -0.5000000), wk =   0.0027435

     Dense  grid:   521019 G-vectors     FFT dimensions: ( 100, 100, 100)

     Smooth grid:   279449 G-vectors     FFT dimensions: (  81,  81,  81)

     Estimated max dynamical RAM per process >     125.29 MB

     Estimated total dynamical RAM >       8.81 GB

     Check: negative core charge=   -0.000002

     Initial potential from superposition of free atoms

     starting charge  511.97959, renormalised to  512.00000
     Starting wfcs are  320 randomized atomic wfcs
     Checking if some PAW data can be deallocated... 

     total cpu time spent up to now is       19.0 secs

     Self-consistent Calculation

     iteration #  1     ecut=    71.00 Ry     beta= 0.10
     Davidson diagonalization with overlap
     ethr =  1.00E-02,  avg # of iterations =  3.4

     Threshold (ethr) on eigenvalues was too large:
     Diagonalizing with lowered threshold

     Davidson diagonalization with overlap
     ethr =  5.53E-05,  avg # of iterations =  5.5

     total cpu time spent up to now is      124.3 secs

     total energy              =  -13812.80669344 Ry
     estimated scf accuracy    <       0.52066297 Ry

     iteration #  2     ecut=    71.00 Ry     beta= 0.10
     Davidson diagonalization with overlap
     ethr =  1.02E-04,  avg # of iterations =  1.0

     total cpu time spent up to now is      158.9 secs

     total energy              =  -13812.65619715 Ry
     estimated scf accuracy    <       0.30920172 Ry

     iteration #  3     ecut=    71.00 Ry     beta= 0.10
     Davidson diagonalization with overlap
     ethr =  6.04E-05,  avg # of iterations =  2.3

     total cpu time spent up to now is      207.1 secs

     total energy              =  -13812.72771012 Ry
     estimated scf accuracy    <       0.01272500 Ry

     iteration #  4     ecut=    71.00 Ry     beta= 0.10
     Davidson diagonalization with overlap
     ethr =  2.49E-06,  avg # of iterations =  2.0

     total cpu time spent up to now is      247.1 secs

     total energy              =  -13812.72786756 Ry
     estimated scf accuracy    <       0.00624775 Ry

     iteration #  5     ecut=    71.00 Ry     beta= 0.10
     Davidson diagonalization with overlap
     ethr =  1.22E-06,  avg # of iterations =  2.0

     total cpu time spent up to now is      286.0 secs

     total energy              =  -13812.73095541 Ry
     estimated scf accuracy    <       0.00626222 Ry

     iteration #  6     ecut=    71.00 Ry     beta= 0.10
     Davidson diagonalization with overlap
     ethr =  1.22E-06,  avg # of iterations =  3.3

     total cpu time spent up to now is      340.8 secs

     total energy              =  -13812.73070494 Ry
     estimated scf accuracy    <       0.01652432 Ry

     iteration #  7     ecut=    71.00 Ry     beta= 0.10
     Davidson diagonalization with overlap
     ethr =  1.22E-06,  avg # of iterations =  2.0

     total cpu time spent up to now is      375.1 secs

     total energy              =  -13812.72857828 Ry
     estimated scf accuracy    <       0.00530396 Ry

     iteration #  8     ecut=    71.00 Ry     beta= 0.10
     Davidson diagonalization with overlap
     ethr =  1.04E-06,  avg # of iterations =  2.5

     total cpu time spent up to now is      418.7 secs

     total energy              =  -13812.72954011 Ry
     estimated scf accuracy    <       0.00006175 Ry

     iteration #  9     ecut=    71.00 Ry     beta= 0.10
     Davidson diagonalization with overlap
     ethr =  1.21E-08,  avg # of iterations =  4.1

     total cpu time spent up to now is      462.4 secs

     total energy              =  -13812.72953544 Ry
     estimated scf accuracy    <       0.00004573 Ry

     iteration # 10     ecut=    71.00 Ry     beta= 0.10
     Davidson diagonalization with overlap
     ethr =  8.93E-09,  avg # of iterations =  2.0

     total cpu time spent up to now is      505.3 secs

     total energy              =  -13812.72954437 Ry
     estimated scf accuracy    <       0.00000249 Ry

     iteration # 11     ecut=    71.00 Ry     beta= 0.10
     Davidson diagonalization with overlap
     ethr =  4.87E-10,  avg # of iterations =  4.2

     total cpu time spent up to now is      557.3 secs

     total energy              =  -13812.72954605 Ry
     estimated scf accuracy    <       0.00000109 Ry

     iteration # 12     ecut=    71.00 Ry     beta= 0.10
     Davidson diagonalization with overlap
     ethr =  2.14E-10,  avg # of iterations =  2.0

     total cpu time spent up to now is      594.5 secs

     total energy              =  -13812.72954555 Ry
     estimated scf accuracy    <       0.00000193 Ry

     iteration # 13     ecut=    71.00 Ry     beta= 0.10
     Davidson diagonalization with overlap
     ethr =  2.14E-10,  avg # of iterations =  2.9

     total cpu time spent up to now is      639.5 secs

     End of self-consistent calculation

          k = 0.0556 0.0556 0.0556 ( 34949 PWs)   bands (ev):

   -53.5431 -53.4900 -53.4900 -53.4900 -53.4798 -53.4798 -53.4798 -53.4609
   -53.4609 -53.4609 -53.4560 -53.4553 -53.4553 -53.4553 -53.4553 -53.4553
   -53.4553 -53.4551 -53.4551 -53.4551 -53.4507 -53.4507 -53.4506 -53.4266
   -53.4266 -53.4266 -53.4264 -53.4264 -53.4264 -53.4264 -53.4264 -53.4264
   -23.7537 -23.7537 -23.7536 -23.7512 -23.7184 -23.7184 -23.7184 -23.5940
   -23.5940 -23.5940 -23.5869 -23.5869 -23.5869 -23.5869 -23.5869 -23.5869
   -23.5744 -23.5744 -23.5744 -23.5630 -23.5630 -23.5630 -23.5630 -23.5630
   -23.5630 -23.5324 -23.5324 -23.5324 -23.5324 -23.5324 -23.5324 -23.4693
   -23.4693 -23.4693 -23.4269 -23.4269 -23.4269 -23.4199 -23.4199 -23.4199
   -23.4017 -23.4017 -23.4017 -23.4017 -23.4017 -23.4017 -23.3772 -23.3772
   -23.3772 -23.3742 -23.3742 -23.3742 -23.3742 -23.3742 -23.3742 -23.3723
   -23.3723 -23.3723 -23.3696 -23.3696 -23.3696 -23.2689 -23.2689 -23.2689
   -23.2686 -23.2686 -23.2686 -23.2491 -23.2491 -23.2491 -23.2489 -23.2489
   -23.2489 -23.2416 -23.2416 -23.2416 -23.2339 -23.2339 -23.2339 -23.2334
   -23.2334 -23.2333 -23.2333 -23.2333 -23.2333 -23.2321 -23.2321 -23.2321
   -23.2304 -23.2304 -23.2220 -23.2220 -23.2220 -23.1508 -23.1467 -23.1467
    12.3154  14.2006  14.2006  14.2007  14.3073  14.3238  14.3238  14.3238
    14.3991  14.3991  14.3991  14.5996  14.5996  14.5996  14.6286  14.6286
    14.6286  15.3662  15.3662  15.3662  15.3662  15.3662  15.3662  15.6266
    15.6266  15.6266  15.6393  15.6393  15.6393  15.7596  15.7596  15.7596
    15.7596  15.7596  15.7596  15.8047  15.8047  15.8047  15.8623  15.8623
    15.8623  16.2825  16.2825  16.2825  16.2825  16.2825  16.2825  16.4058
    16.4058  16.4058  16.4365  16.4365  16.4365  16.4365  16.4365  16.4365
    16.5003  16.5003  16.5003  16.6777  16.6777  16.6777  16.6887  16.6887
    16.6887  16.6887  16.6887  16.6887  16.7167  16.7167  16.7167  16.7167
    16.7167  16.7167  16.8705  16.8705  16.8705  17.1100  17.1100  17.1100
    17.1380  17.1380  17.1502  17.1503  17.1503  17.2018  17.2267  17.2267
    17.9949  17.9949  17.9949  18.1031  18.1031  18.1031  18.2078  18.2078
    18.2078  18.2862  18.2862  18.2862  18.2862  18.2862  18.2862  18.2991
    18.2991  18.2991  18.5183  18.5183  18.5183  18.6100  18.6100  18.6100
    18.8139  18.8139  18.8139  18.8984  18.8984  18.8984  18.8985  18.8985
    18.8985  18.9010  18.9010  18.9010  18.9177  18.9177  18.9177  19.0834
    19.0834  19.0834  19.0834  19.0834  19.0834  19.1009  19.1009  19.2210
    19.2210  19.2210  19.7193  19.7193  19.7193  19.8458  19.8458  19.8458
    19.8602  19.8602  19.8602  20.0836  20.4860  20.4860  20.4860  20.5257
    20.5257  20.5524  20.5524  20.5524  20.7924  20.7924  20.7924  20.8818
    20.8818  20.8818  20.9203  20.9203  20.9203  20.9204  20.9204  20.9204
    20.9244  20.9244  20.9244  22.1392  22.1392  22.1392  22.5696  22.5696
    22.5696  22.5986  22.5986

          k = 0.0556 0.0556 0.1667 ( 34948 PWs)   bands (ev):

   -53.5414 -53.5001 -53.4890 -53.4890 -53.4790 -53.4790 -53.4698 -53.4664
   -53.4664 -53.4607 -53.4599 -53.4599 -53.4569 -53.4553 -53.4553 -53.4551
   -53.4551 -53.4542 -53.4508 -53.4499 -53.4498 -53.4461 -53.4461 -53.4283
   -53.4273 -53.4273 -53.4272 -53.4272 -53.4265 -53.4265 -53.4264 -53.4264
   -23.7492 -23.7468 -23.7468 -23.7418 -23.7133 -23.7133 -23.7102 -23.6128
   -23.6045 -23.6044 -23.5969 -23.5969 -23.5952 -23.5952 -23.5925 -23.5925
   -23.5915 -23.5760 -23.5760 -23.5692 -23.5692 -23.5611 -23.5611 -23.5580
   -23.5580 -23.5372 -23.5372 -23.5269 -23.5269 -23.5174 -23.5028 -23.5028
   -23.4770 -23.4770 -23.4516 -23.4516 -23.4299 -23.4299 -23.4257 -23.4257
   -23.4070 -23.3840 -23.3840 -23.3785 -23.3785 -23.3767 -23.3767 -23.3739
   -23.3738 -23.3708 -23.3690 -23.3690 -23.3688 -23.3663 -23.3654 -23.3654
   -23.3645 -23.3645 -23.3611 -23.3531 -23.3531 -23.2885 -23.2878 -23.2732
   -23.2732 -23.2638 -23.2638 -23.2536 -23.2536 -23.2533 -23.2533 -23.2484
   -23.2483 -23.2445 -23.2433 -23.2433 -23.2413 -23.2404 -23.2404 -23.2339
   -23.2338 -23.2333 -23.2333 -23.2327 -23.2327 -23.2298 -23.2293 -23.2290
   -23.2290 -23.2288 -23.2223 -23.2147 -23.2147 -23.1614 -23.1502 -23.1489
    12.3901  14.0783  14.2387  14.2536  14.2536  14.3372  14.3701  14.3701
    14.3863  14.4529  14.4529  14.6314  14.6482  14.6482  14.6840  14.6840
    14.7342  15.2666  15.2666  15.4030  15.4080  15.4080  15.4144  15.4144
    15.4281  15.4703  15.4703  15.5188  15.5188  15.5852  15.6679  15.6679
    15.6688  15.6688  15.8229  15.8229  15.8785  15.8785  15.8868  15.8868
    15.9190  15.9190  16.0911  16.2596  16.2596  16.2856  16.2856  16.3267
    16.3267  16.3478  16.3478  16.4226  16.4226  16.4664  16.4664  16.5369
    16.5369  16.5393  16.6147  16.6147  16.6461  16.6461  16.6551  16.6597
    16.6597  16.6943  16.6943  16.7521  16.7521  16.8648  16.8648  16.9372
    16.9382  16.9679  16.9679  17.0535  17.0781  17.0781  17.1324  17.1324
    17.1362  17.1544  17.1654  17.1928  17.1928  17.2018  17.2614  17.2644
    17.8187  17.8187  17.8972  17.8972  18.0063  18.0444  18.1311  18.1311
    18.1571  18.2323  18.2323  18.2451  18.3580  18.3705  18.3705  18.3811
    18.4027  18.4027  18.4367  18.4367  18.4994  18.4994  18.7649  18.7649
    18.7709  18.7709  18.7868  18.7869  18.8987  18.8987  18.9100  18.9100
    18.9934  18.9934  19.0240  19.0240  19.0468  19.0785  19.0785  19.0911
    19.1206  19.1256  19.2600  19.2608  19.2608  19.3103  19.3103  19.3790
    19.4049  19.4049  19.4440  19.4903  19.4903  19.5976  19.6659  19.7695
    19.7695  19.9202  19.9202  19.9740  20.3582  20.3582  20.4263  20.4263
    20.4370  20.4553  20.5130  20.5130  20.5158  20.6889  20.7779  20.8232
    20.8232  20.8241  20.8241  20.8400  20.9195  20.9195  20.9202  20.9202
    21.1841  21.1841  21.3895  21.7031  21.7031  22.0951  22.1472  22.1472
    22.2771  22.5579  22.5579

          k = 0.0556 0.0556 0.2778 ( 34893 PWs)   bands (ev):

   -53.5379 -53.5096 -53.4871 -53.4871 -53.4774 -53.4774 -53.4716 -53.4716
   -53.4643 -53.4643 -53.4604 -53.4601 -53.4578 -53.4553 -53.4553 -53.4551
   -53.4551 -53.4534 -53.4511 -53.4446 -53.4446 -53.4417 -53.4417 -53.4318
   -53.4292 -53.4292 -53.4287 -53.4287 -53.4265 -53.4265 -53.4264 -53.4264
   -23.7380 -23.7333 -23.7333 -23.7260 -23.7031 -23.7031 -23.6941 -23.6406
   -23.6315 -23.6315 -23.6206 -23.6206 -23.6184 -23.5991 -23.5991 -23.5956
   -23.5956 -23.5782 -23.5782 -23.5626 -23.5626 -23.5626 -23.5618 -23.5618
   -23.5388 -23.5388 -23.5383 -23.5383 -23.5174 -23.5174 -23.4906 -23.4906
   -23.4752 -23.4752 -23.4742 -23.4742 -23.4486 -23.4486 -23.4473 -23.4473
   -23.3892 -23.3892 -23.3769 -23.3731 -23.3731 -23.3694 -23.3694 -23.3620
   -23.3596 -23.3569 -23.3568 -23.3528 -23.3528 -23.3499 -23.3499 -23.3480
   -23.3480 -23.3361 -23.3301 -23.3301 -23.3234 -23.3072 -23.3059 -23.2820
   -23.2820 -23.2689 -23.2689 -23.2664 -23.2664 -23.2618 -23.2618 -23.2617
   -23.2556 -23.2556 -23.2541 -23.2541 -23.2443 -23.2406 -23.2355 -23.2344
   -23.2344 -23.2333 -23.2333 -23.2328 -23.2328 -23.2286 -23.2286 -23.2272
   -23.2228 -23.2116 -23.2116 -23.2114 -23.2105 -23.1800 -23.1569 -23.1553
    12.5375  13.7169  14.3118  14.3568  14.3568  14.4132  14.4621  14.4621
    14.4938  14.5573  14.5573  14.6946  14.7262  14.7451  14.7451  14.7916
    14.7916  15.0961  15.0961  15.1436  15.2337  15.2468  15.2468  15.2877
    15.2878  15.3181  15.4878  15.4878  15.5091  15.5091  15.5202  15.5202
    15.5969  15.5969  15.7270  15.7270  15.8235  15.8235  15.9344  15.9344
    15.9896  15.9896  16.1904  16.1904  16.2225  16.2225  16.2578  16.2578
    16.2682  16.2682  16.2865  16.2865  16.3188  16.3428  16.3428  16.4747
    16.4747  16.5746  16.5746  16.5999  16.6816  16.6816  16.7025  16.7025
    16.7061  16.7061  16.8263  16.8263  16.8362  16.9734  17.0228  17.0228
    17.0379  17.0380  17.0560  17.1073  17.1975  17.2124  17.2124  17.2319
    17.2724  17.2724  17.2914  17.3021  17.3371  17.3397  17.6054  17.6054
    17.6133  17.6133  17.6325  17.6325  17.8411  17.9295  17.9295  17.9556
    17.9602  17.9989  18.2923  18.3306  18.3306  18.4896  18.4896  18.5089
    18.5089  18.5487  18.5487  18.6068  18.6068  18.7004  18.7004  18.7715
    18.7715  18.8095  18.8699  18.8699  18.8908  18.8908  18.9200  18.9200
    18.9422  18.9518  18.9518  19.0057  19.0313  19.0313  19.1310  19.1595
    19.1626  19.1626  19.2435  19.2435  19.3454  19.4448  19.4838  19.5057
    19.5057  19.5705  19.5705  19.6054  19.6289  19.6289  19.6371  19.8163
    19.8163  19.9114  19.9114  20.1011  20.1235  20.1235  20.2638  20.2638
    20.2917  20.3885  20.3960  20.3960  20.4184  20.4874  20.6449  20.6449
    20.6459  20.6459  20.6871  20.9188  20.9188  20.9199  20.9199  21.1166
    21.2835  21.2835  21.5452  21.5452  21.7039  21.7039  21.7746  21.8628
    22.0047  22.4723  22.4723

          k = 0.0556 0.0556 0.3889 ( 34913 PWs)   bands (ev):

   -53.5328 -53.5185 -53.4843 -53.4843 -53.4765 -53.4765 -53.4750 -53.4750
   -53.4684 -53.4684 -53.4599 -53.4586 -53.4553 -53.4553 -53.4552 -53.4552
   -53.4527 -53.4515 -53.4513 -53.4398 -53.4398 -53.4376 -53.4376 -53.4369
   -53.4320 -53.4320 -53.4311 -53.4311 -53.4265 -53.4265 -53.4264 -53.4264
   -23.7204 -23.7138 -23.7138 -23.7044 -23.6883 -23.6883 -23.6707 -23.6700
   -23.6610 -23.6610 -23.6486 -23.6464 -23.6464 -23.6040 -23.5987 -23.5987
   -23.5904 -23.5904 -23.5872 -23.5872 -23.5716 -23.5716 -23.5450 -23.5450
   -23.5301 -23.5301 -23.5162 -23.5162 -23.5078 -23.5078 -23.5045 -23.5045
   -23.4966 -23.4966 -23.4698 -23.4698 -23.4691 -23.4691 -23.4479 -23.4479
   -23.4047 -23.4047 -23.3722 -23.3722 -23.3702 -23.3702 -23.3522 -23.3499
   -23.3441 -23.3308 -23.3308 -23.3301 -23.3301 -23.3281 -23.3281 -23.3271
   -23.3271 -23.3243 -23.3227 -23.3088 -23.3088 -23.3087 -23.2948 -23.2948
   -23.2871 -23.2871 -23.2868 -23.2868 -23.2848 -23.2792 -23.2741 -23.2741
   -23.2738 -23.2738 -23.2610 -23.2465 -23.2465 -23.2396 -23.2371 -23.2332
   -23.2332 -23.2329 -23.2329 -23.2318 -23.2318 -23.2258 -23.2251 -23.2251
   -23.2236 -23.2127 -23.2127 -23.2062 -23.1944 -23.1931 -23.1668 -23.1651
    12.7535  13.3581  14.4129  14.5048  14.5048  14.5344  14.5985  14.5985
    14.6444  14.6447  14.7058  14.7058  14.7882  14.8897  14.8897  14.8927
    14.8927  14.9041  14.9446  14.9446  14.9952  14.9952  15.0601  15.0624
    15.0878  15.0878  15.3172  15.3172  15.3316  15.3317  15.5958  15.5958
    15.6468  15.6468  15.7929  15.7929  15.8120  15.8120  16.0020  16.0020
    16.0128  16.0128  16.0498  16.0498  16.1262  16.1262  16.1769  16.1769
    16.1868  16.1868  16.2269  16.2269  16.2696  16.2696  16.4616  16.4616
    16.5019  16.5019  16.5378  16.6815  16.7011  16.7011  16.7090  16.7090
    16.7844  16.7844  16.8781  16.9151  16.9213  16.9497  16.9497  16.9587
    16.9587  17.0570  17.1230  17.1230  17.3361  17.3738  17.3738  17.3880
    17.3880  17.4083  17.4083  17.4169  17.4500  17.4519  17.6045  17.6045
    17.6179  17.6463  17.7052  17.7559  17.7560  17.7592  17.7755  17.7831
    18.1280  18.1280  18.4261  18.4261  18.4342  18.4803  18.4803  18.5584
    18.5584  18.5645  18.6012  18.6406  18.6406  18.6890  18.6890  18.7076
    18.7076  18.7526  18.7527  18.7546  18.7546  18.7951  18.8610  18.8610
    18.8668  18.8668  18.9086  18.9086  18.9668  18.9668  19.1315  19.1315
    19.2167  19.2394  19.2394  19.3162  19.3808  19.5133  19.5133  19.6115
    19.7586  19.7628  19.7628  19.8453  19.8507  19.8508  19.8819  19.8819
    20.0511  20.0511  20.0653  20.0982  20.1661  20.1661  20.1928  20.2229
    20.2229  20.2258  20.2635  20.2670  20.4083  20.4083  20.4112  20.4112
    20.4508  20.4508  20.5062  20.8802  20.8802  20.9188  20.9188  20.9195
    20.9195  21.1729  21.2677  21.2677  21.4190  21.8640  21.8708  21.8708
    22.2649  22.3343  22.3343

          k = 0.0556 0.0556-0.5000 ( 34958 PWs)   bands (ev):

   -53.5262 -53.5262 -53.4808 -53.4807 -53.4807 -53.4807 -53.4720 -53.4720
   -53.4720 -53.4720 -53.4593 -53.4593 -53.4552 -53.4552 -53.4552 -53.4552
   -53.4520 -53.4520 -53.4435 -53.4435 -53.4356 -53.4356 -53.4356 -53.4356
   -53.4341 -53.4341 -53.4341 -53.4341 -53.4264 -53.4264 -53.4264 -53.4264
   -23.6973 -23.6973 -23.6893 -23.6893 -23.6892 -23.6892 -23.6781 -23.6781
   -23.6692 -23.6692 -23.6692 -23.6692 -23.6405 -23.6405 -23.5945 -23.5945
   -23.5945 -23.5945 -23.5820 -23.5820 -23.5820 -23.5820 -23.5265 -23.5265
   -23.5265 -23.5265 -23.5153 -23.5153 -23.5153 -23.5153 -23.4927 -23.4927
   -23.4927 -23.4927 -23.4886 -23.4886 -23.4886 -23.4886 -23.4244 -23.4244
   -23.4244 -23.4244 -23.3712 -23.3712 -23.3712 -23.3712 -23.3395 -23.3395
   -23.3376 -23.3376 -23.3127 -23.3127 -23.3112 -23.3112 -23.3112 -23.3112
   -23.3085 -23.3085 -23.3085 -23.3085 -23.3072 -23.3072 -23.3072 -23.3072
   -23.2986 -23.2986 -23.2986 -23.2986 -23.2900 -23.2900 -23.2900 -23.2900
   -23.2829 -23.2829 -23.2396 -23.2396 -23.2384 -23.2384 -23.2381 -23.2381
   -23.2381 -23.2381 -23.2331 -23.2331 -23.2331 -23.2331 -23.2246 -23.2246
   -23.2175 -23.2175 -23.2175 -23.2174 -23.1794 -23.1794 -23.1779 -23.1779
    13.0308  13.0309  14.5303  14.5303  14.6882  14.6882  14.6882  14.6882
    14.6991  14.6991  14.7773  14.7773  14.7773  14.7773  14.8353  14.8353
    14.8876  14.8876  14.8876  14.8876  14.9107  14.9107  15.0809  15.0809
    15.0809  15.0809  15.1309  15.1309  15.1309  15.1309  15.7103  15.7103
    15.7103  15.7103  15.8212  15.8212  15.8212  15.8212  15.9210  15.9210
    15.9210  15.9210  16.0851  16.0851  16.0851  16.0852  16.1767  16.1767
    16.1767  16.1767  16.2106  16.2106  16.2106  16.2107  16.4639  16.4639
    16.4639  16.4639  16.7097  16.7097  16.7097  16.7097  16.7395  16.7395
    16.7773  16.7773  16.8673  16.8673  16.8673  16.8673  16.9928  16.9928
    17.1447  17.1447  17.1447  17.1447  17.2453  17.2453  17.2453  17.2453
    17.4756  17.4756  17.5352  17.5352  17.5352  17.5352  17.5747  17.5747
    17.5980  17.5980  17.6001  17.6001  18.0934  18.0934  18.0948  18.0948
    18.0948  18.0948  18.1288  18.1288  18.4667  18.4667  18.4667  18.4667
    18.6185  18.6185  18.6723  18.6723  18.6723  18.6723  18.7182  18.7182
    18.7182  18.7182  18.7887  18.7887  18.7887  18.7887  18.7958  18.7958
    18.7958  18.7958  18.8568  18.8568  18.8568  18.8568  19.0426  19.0427
    19.0427  19.0427  19.2910  19.2910  19.7932  19.7932  19.7932  19.7932
    19.8004  19.8004  19.8673  19.8673  20.0073  20.0073  20.0073  20.0073
    20.0453  20.0453  20.0716  20.0716  20.1360  20.1360  20.1360  20.1360
    20.1490  20.1490  20.1490  20.1490  20.3536  20.3536  20.5011  20.5011
    20.5011  20.5011  20.5778  20.5778  20.8444  20.8444  20.8444  20.8444
    20.9191  20.9191  20.9191  20.9191  21.6693  21.6694  22.1354  22.1354
    22.1354  22.1354  22.5776

          k = 0.0556 0.1667 0.1667 ( 34940 PWs)   bands (ev):

   -53.5396 -53.4990 -53.4989 -53.4881 -53.4782 -53.4727 -53.4691 -53.4691
   -53.4661 -53.4661 -53.4598 -53.4598 -53.4587 -53.4560 -53.4536 -53.4536
   -53.4534 -53.4534 -53.4500 -53.4500 -53.4464 -53.4464 -53.4423 -53.4283
   -53.4283 -53.4281 -53.4281 -53.4275 -53.4275 -53.4270 -53.4270 -53.4265
   -23.7448 -23.7448 -23.7377 -23.7302 -23.7081 -23.7055 -23.7055 -23.6169
   -23.6169 -23.6130 -23.6130 -23.5954 -23.5954 -23.5948 -23.5923 -23.5923
   -23.5900 -23.5899 -23.5885 -23.5885 -23.5750 -23.5750 -23.5744 -23.5744
   -23.5363 -23.5227 -23.5227 -23.5227 -23.5227 -23.5117 -23.5117 -23.4981
   -23.4981 -23.4853 -23.4770 -23.4404 -23.4295 -23.4295 -23.4069 -23.4069
   -23.4000 -23.4000 -23.3882 -23.3829 -23.3829 -23.3749 -23.3749 -23.3661
   -23.3661 -23.3656 -23.3656 -23.3646 -23.3633 -23.3633 -23.3614 -23.3614
   -23.3572 -23.3572 -23.3387 -23.3387 -23.3298 -23.2929 -23.2929 -23.2839
   -23.2839 -23.2691 -23.2666 -23.2624 -23.2530 -23.2530 -23.2529 -23.2529
   -23.2480 -23.2480 -23.2477 -23.2468 -23.2467 -23.2467 -23.2393 -23.2374
   -23.2374 -23.2355 -23.2338 -23.2337 -23.2304 -23.2293 -23.2293 -23.2289
   -23.2233 -23.2233 -23.2153 -23.2153 -23.2043 -23.1746 -23.1533 -23.1486
    12.4638  14.1326  14.1327  14.2920  14.2920  14.3021  14.3488  14.3985
    14.4469  14.4469  14.4974  14.6795  14.6795  14.6993  14.7279  14.7915
    14.7915  15.2539  15.2784  15.2784  15.2961  15.2961  15.3150  15.3151
    15.4342  15.4342  15.4556  15.4556  15.4621  15.4621  15.6313  15.6313
    15.6417  15.6417  15.7075  15.7362  15.8365  15.8365  15.9194  15.9318
    15.9318  15.9324  15.9324  16.1101  16.1101  16.2293  16.2293  16.2987
    16.2987  16.3520  16.4245  16.4245  16.4467  16.4709  16.4709  16.5185
    16.5185  16.6042  16.6043  16.6130  16.6130  16.6906  16.6906  16.7759
    16.7850  16.7850  16.8122  16.8122  16.9531  16.9531  16.9924  16.9924
    16.9959  16.9959  17.0614  17.0615  17.0652  17.1252  17.1252  17.1264
    17.1296  17.1465  17.1958  17.2331  17.2596  17.2597  17.2791  17.2983
    17.7139  17.7695  17.8350  17.8351  18.0464  18.0464  18.1203  18.1203
    18.1814  18.1859  18.1859  18.2334  18.2334  18.2660  18.2660  18.2836
    18.2836  18.3964  18.4652  18.5240  18.5240  18.5567  18.5567  18.6005
    18.6527  18.8976  18.8977  18.9599  18.9898  18.9898  19.0126  19.0126
    19.0309  19.0440  19.0440  19.0902  19.0902  19.1061  19.1655  19.1656
    19.2079  19.2080  19.2379  19.2545  19.2545  19.3173  19.4387  19.4387
    19.4450  19.4777  19.4777  19.5417  19.5505  19.5505  19.6288  19.6288
    19.7938  19.9481  20.0847  20.0848  20.1087  20.2170  20.2170  20.3306
    20.4218  20.4218  20.4697  20.5324  20.5324  20.5478  20.5867  20.7443
    20.7443  20.8224  20.8224  20.8252  20.8252  20.8386  20.8386  20.8720
    21.1450  21.2885  21.6587  21.6587  21.7080  21.7081  22.1065  22.1065
    22.6323  22.7447  22.7452

          k = 0.0556 0.1667 0.2778 ( 34914 PWs)   bands (ev):

   -53.5362 -53.5084 -53.4967 -53.4862 -53.4788 -53.4766 -53.4712 -53.4678
   -53.4654 -53.4640 -53.4604 -53.4596 -53.4594 -53.4572 -53.4569 -53.4526
   -53.4517 -53.4503 -53.4475 -53.4469 -53.4449 -53.4421 -53.4388 -53.4317
   -53.4299 -53.4297 -53.4296 -53.4283 -53.4282 -53.4276 -53.4269 -53.4266
   -23.7361 -23.7339 -23.7223 -23.7123 -23.6981 -23.6962 -23.6903 -23.6450
   -23.6396 -23.6210 -23.6181 -23.6168 -23.6167 -23.6162 -23.6009 -23.5999
   -23.5995 -23.5893 -23.5892 -23.5847 -23.5814 -23.5813 -23.5766 -23.5657
   -23.5539 -23.5323 -23.5252 -23.5147 -23.5116 -23.5063 -23.5007 -23.4999
   -23.4892 -23.4856 -23.4699 -23.4587 -23.4510 -23.4291 -23.4222 -23.4036
   -23.4017 -23.3971 -23.3856 -23.3782 -23.3753 -23.3679 -23.3663 -23.3656
   -23.3621 -23.3619 -23.3588 -23.3518 -23.3465 -23.3437 -23.3426 -23.3398
   -23.3375 -23.3373 -23.3174 -23.3162 -23.3117 -23.3076 -23.3031 -23.3019
   -23.2769 -23.2759 -23.2747 -23.2727 -23.2684 -23.2679 -23.2670 -23.2656
   -23.2588 -23.2550 -23.2517 -23.2485 -23.2485 -23.2472 -23.2419 -23.2412
   -23.2405 -23.2376 -23.2369 -23.2348 -23.2299 -23.2293 -23.2260 -23.2164
   -23.2151 -23.2140 -23.2126 -23.2042 -23.1982 -23.1952 -23.1601 -23.1522
    12.6093  13.7741  14.2387  14.3656  14.3958  14.3972  14.4052  14.4714
    14.5509  14.5660  14.5827  14.7417  14.7754  14.7840  14.8006  14.8116
    14.9033  15.0260  15.0463  15.1144  15.1413  15.1421  15.1773  15.2715
    15.3266  15.3502  15.3580  15.3951  15.4101  15.5295  15.5335  15.5490
    15.6161  15.6379  15.6502  15.6847  15.6936  15.7445  15.7851  15.9383
    15.9583  15.9626  15.9841  16.1073  16.1460  16.1498  16.1682  16.2282
    16.2697  16.2780  16.3321  16.3346  16.3539  16.3762  16.4476  16.4645
    16.4895  16.5317  16.6589  16.6901  16.7513  16.7761  16.7955  16.8448
    16.8821  16.8867  16.9068  16.9085  16.9353  16.9366  17.0254  17.0312
    17.0421  17.0505  17.1068  17.1091  17.1406  17.1728  17.2303  17.2537
    17.2973  17.3079  17.3435  17.3561  17.3629  17.3671  17.5222  17.5530
    17.5673  17.5927  17.6575  17.7885  17.8339  17.8382  17.9707  17.9927
    18.0704  18.0781  18.1058  18.2123  18.2286  18.2772  18.3284  18.4183
    18.4200  18.4597  18.4713  18.5015  18.5657  18.5894  18.6433  18.7197
    18.7472  18.7965  18.8016  18.8308  18.8662  18.8842  18.9428  18.9665
    18.9738  18.9846  19.0656  19.0694  19.1117  19.1372  19.2208  19.2213
    19.2351  19.2630  19.2674  19.4012  19.4700  19.4822  19.4857  19.4991
    19.5403  19.6588  19.6756  19.7107  19.7169  19.7208  19.7249  19.7561
    19.7618  19.8183  19.8970  19.9916  20.0966  20.1896  20.2672  20.2865
    20.3023  20.3543  20.3784  20.4631  20.4765  20.4794  20.5991  20.5998
    20.6460  20.6481  20.6945  20.7837  20.8222  20.8264  20.8348  20.8440
    20.8974  21.2402  21.2935  21.5691  21.6644  22.0235  22.0688  22.1699
    22.2361  22.2585  22.9889

          k = 0.0556 0.1667 0.3889 ( 34920 PWs)   bands (ev):

   -53.5312 -53.5171 -53.4935 -53.4844 -53.4835 -53.4759 -53.4744 -53.4680
   -53.4658 -53.4645 -53.4620 -53.4605 -53.4590 -53.4577 -53.4518 -53.4509
   -53.4507 -53.4502 -53.4478 -53.4419 -53.4402 -53.4382 -53.4367 -53.4355
   -53.4329 -53.4326 -53.4319 -53.4302 -53.4281 -53.4278 -53.4268 -53.4266
   -23.7208 -23.7168 -23.7014 -23.6890 -23.6833 -23.6827 -23.6738 -23.6682
   -23.6679 -23.6472 -23.6445 -23.6418 -23.6312 -23.6159 -23.6127 -23.6050
   -23.6047 -23.6040 -23.6015 -23.5954 -23.5808 -23.5732 -23.5704 -23.5584
   -23.5445 -23.5367 -23.5308 -23.5214 -23.5185 -23.5031 -23.4889 -23.4847
   -23.4815 -23.4767 -23.4708 -23.4608 -23.4503 -23.4438 -23.4428 -23.4291
   -23.4185 -23.4009 -23.3664 -23.3659 -23.3622 -23.3610 -23.3605 -23.3577
   -23.3525 -23.3488 -23.3469 -23.3329 -23.3291 -23.3272 -23.3259 -23.3243
   -23.3206 -23.3199 -23.3152 -23.3111 -23.2982 -23.2979 -23.2946 -23.2917
   -23.2901 -23.2900 -23.2889 -23.2875 -23.2871 -23.2855 -23.2852 -23.2685
   -23.2662 -23.2647 -23.2537 -23.2532 -23.2503 -23.2498 -23.2490 -23.2461
   -23.2445 -23.2428 -23.2333 -23.2330 -23.2308 -23.2277 -23.2230 -23.2224
   -23.2182 -23.2141 -23.2053 -23.1979 -23.1965 -23.1869 -23.1700 -23.1602
    12.8224  13.4193  14.3909  14.4676  14.5057  14.5348  14.5447  14.5878
    14.6969  14.7015  14.7016  14.7252  14.7971  14.8309  14.8337  14.9078
    14.9184  14.9266  14.9361  14.9442  14.9498  14.9934  15.0634  15.1010
    15.1046  15.1473  15.1986  15.3406  15.3743  15.4194  15.4778  15.5475
    15.5706  15.6295  15.6347  15.6846  15.7330  15.8592  15.8876  15.9019
    15.9216  15.9947  16.0201  16.0575  16.0775  16.0797  16.0804  16.1000
    16.1336  16.1941  16.2290  16.2443  16.2975  16.3453  16.4527  16.5450
    16.5465  16.6133  16.6991  16.7450  16.7698  16.7760  16.8110  16.8111
    16.8582  16.8798  16.9055  16.9094  16.9700  16.9727  16.9816  17.0194
    17.0806  17.1164  17.1286  17.3042  17.3446  17.3476  17.3863  17.4149
    17.4213  17.4520  17.4577  17.4609  17.4682  17.4864  17.5001  17.5067
    17.5464  17.6589  17.6616  17.7344  17.7803  17.7861  17.8701  17.8848
    18.0207  18.0900  18.1740  18.2287  18.2430  18.2787  18.3663  18.3777
    18.3987  18.4251  18.4586  18.4901  18.5020  18.5104  18.5741  18.6250
    18.6621  18.7273  18.8053  18.8054  18.8416  18.8765  18.8895  18.9066
    18.9315  19.0101  19.0404  19.0628  19.1073  19.1408  19.1416  19.1989
    19.2565  19.2880  19.3826  19.4225  19.4625  19.4789  19.5362  19.5451
    19.6853  19.7073  19.7646  19.8376  19.9181  19.9360  19.9516  19.9586
    19.9766  19.9843  19.9905  20.0620  20.0750  20.1311  20.1365  20.2124
    20.2751  20.3541  20.3579  20.4095  20.4097  20.4104  20.4120  20.4204
    20.5221  20.5305  20.6097  20.7881  20.8229  20.8277  20.8312  20.8317
    20.8385  21.0318  21.2294  21.4338  21.5143  21.6799  21.7044  21.8961
    22.4028  22.7019  22.8640

          k = 0.0556 0.1667-0.5000 ( 34932 PWs)   bands (ev):

   -53.5247 -53.5247 -53.4893 -53.4893 -53.4800 -53.4800 -53.4714 -53.4714
   -53.4634 -53.4634 -53.4633 -53.4633 -53.4584 -53.4584 -53.4512 -53.4512
   -53.4489 -53.4489 -53.4432 -53.4432 -53.4370 -53.4370 -53.4361 -53.4361
   -53.4348 -53.4348 -53.4326 -53.4326 -53.4280 -53.4280 -53.4267 -53.4267
   -23.6997 -23.6997 -23.6944 -23.6944 -23.6758 -23.6758 -23.6653 -23.6653
   -23.6644 -23.6644 -23.6614 -23.6614 -23.6395 -23.6395 -23.6107 -23.6107
   -23.6060 -23.6060 -23.6053 -23.6053 -23.5727 -23.5727 -23.5577 -23.5577
   -23.5386 -23.5386 -23.5361 -23.5361 -23.5062 -23.5062 -23.4884 -23.4884
   -23.4703 -23.4703 -23.4611 -23.4611 -23.4568 -23.4568 -23.4383 -23.4383
   -23.4205 -23.4205 -23.3662 -23.3662 -23.3604 -23.3604 -23.3446 -23.3446
   -23.3360 -23.3360 -23.3322 -23.3322 -23.3286 -23.3286 -23.3167 -23.3167
   -23.3114 -23.3114 -23.3079 -23.3079 -23.3058 -23.3058 -23.3047 -23.3047
   -23.3023 -23.3023 -23.2860 -23.2860 -23.2807 -23.2807 -23.2690 -23.2690
   -23.2690 -23.2690 -23.2602 -23.2602 -23.2559 -23.2559 -23.2474 -23.2474
   -23.2446 -23.2446 -23.2398 -23.2398 -23.2319 -23.2319 -23.2203 -23.2203
   -23.2194 -23.2194 -23.1991 -23.1991 -23.1828 -23.1828 -23.1720 -23.1720
    13.0961  13.0961  14.5809  14.5809  14.5861  14.5861  14.6486  14.6486
    14.7085  14.7085  14.7296  14.7296  14.7462  14.7462  14.8427  14.8427
    14.8825  14.8825  14.9207  14.9207  14.9542  14.9542  15.0605  15.0605
    15.1073  15.1073  15.1430  15.1430  15.2610  15.2610  15.4944  15.4944
    15.7176  15.7176  15.7206  15.7207  15.7608  15.7608  15.8558  15.8558
    15.9754  15.9754  16.0394  16.0394  16.0544  16.0544  16.0569  16.0569
    16.1105  16.1105  16.2028  16.2028  16.2476  16.2476  16.6061  16.6061
    16.6525  16.6525  16.7094  16.7094  16.7183  16.7183  16.7405  16.7405
    16.8632  16.8632  16.9215  16.9215  17.0356  17.0356  17.0749  17.0749
    17.1436  17.1437  17.1507  17.1507  17.2409  17.2409  17.3900  17.3900
    17.4694  17.4694  17.5423  17.5423  17.5944  17.5944  17.6004  17.6004
    17.6371  17.6371  17.6662  17.6662  17.9340  17.9340  17.9586  17.9586
    18.0054  18.0054  18.0473  18.0473  18.2307  18.2307  18.2364  18.2365
    18.4398  18.4398  18.5514  18.5514  18.5968  18.5968  18.6100  18.6100
    18.6432  18.6432  18.7076  18.7076  18.7561  18.7561  18.8458  18.8458
    18.9848  18.9848  19.0134  19.0134  19.0858  19.0858  19.2817  19.2817
    19.3097  19.3097  19.3267  19.3267  19.3812  19.3812  19.7460  19.7460
    19.8112  19.8112  19.8196  19.8196  19.9883  19.9883  20.0345  20.0345
    20.1328  20.1328  20.1725  20.1725  20.1754  20.1754  20.1891  20.1891
    20.1919  20.1919  20.1970  20.1970  20.1982  20.1982  20.3471  20.3471
    20.4611  20.4611  20.8062  20.8062  20.8254  20.8254  20.8294  20.8294
    21.1020  21.1021  21.2398  21.2398  21.2532  21.2532  21.7241  21.7241
    22.6714  22.6714  23.0638

          k = 0.0556 0.2778 0.2778 ( 34916 PWs)   bands (ev):

   -53.5329 -53.5059 -53.5059 -53.4856 -53.4845 -53.4752 -53.4702 -53.4702
   -53.4634 -53.4634 -53.4629 -53.4586 -53.4586 -53.4585 -53.4503 -53.4503
   -53.4501 -53.4501 -53.4455 -53.4455 -53.4430 -53.4430 -53.4360 -53.4315
   -53.4315 -53.4314 -53.4314 -53.4301 -53.4301 -53.4279 -53.4279 -53.4267
   -23.7277 -23.7277 -23.7055 -23.6927 -23.6882 -23.6828 -23.6828 -23.6448
   -23.6448 -23.6424 -23.6424 -23.6211 -23.6211 -23.6077 -23.6077 -23.6043
   -23.6042 -23.6009 -23.6009 -23.5970 -23.5970 -23.5808 -23.5795 -23.5795
   -23.5712 -23.5712 -23.5234 -23.5164 -23.5024 -23.5024 -23.4906 -23.4906
   -23.4823 -23.4784 -23.4615 -23.4615 -23.4181 -23.4171 -23.4171 -23.3999
   -23.3999 -23.3968 -23.3968 -23.3784 -23.3784 -23.3606 -23.3606 -23.3582
   -23.3582 -23.3551 -23.3536 -23.3536 -23.3456 -23.3456 -23.3322 -23.3322
   -23.3210 -23.3210 -23.3191 -23.3191 -23.2977 -23.2977 -23.2974 -23.2974
   -23.2888 -23.2888 -23.2863 -23.2839 -23.2703 -23.2703 -23.2683 -23.2658
   -23.2658 -23.2638 -23.2638 -23.2629 -23.2476 -23.2476 -23.2461 -23.2451
   -23.2432 -23.2402 -23.2319 -23.2307 -23.2307 -23.2294 -23.2229 -23.2229
   -23.2183 -23.2145 -23.2145 -23.1953 -23.1953 -23.1890 -23.1670 -23.1522
    12.7509  13.8863  13.8863  14.4385  14.4706  14.4707  14.4779  14.5216
    14.6309  14.6778  14.6778  14.7563  14.8354  14.8354  14.8497  14.8969
    14.8970  14.9088  14.9528  14.9528  15.1069  15.1069  15.1510  15.1510
    15.2316  15.2316  15.3467  15.3467  15.4785  15.4785  15.4814  15.4814
    15.5014  15.6218  15.6219  15.6541  15.6541  15.7183  15.7183  15.7276
    15.7276  15.8996  16.0051  16.0052  16.0364  16.0364  16.0829  16.2697
    16.3037  16.3037  16.3317  16.3317  16.3551  16.3551  16.3811  16.6288
    16.6288  16.7768  16.7768  16.7780  16.7780  16.8221  16.8221  16.8254
    16.8254  16.8941  16.8941  16.9887  17.0151  17.0728  17.0741  17.0742
    17.1131  17.1131  17.1426  17.2415  17.2415  17.3187  17.3621  17.3621
    17.3665  17.3825  17.3825  17.4223  17.4470  17.4583  17.4760  17.4760
    17.5492  17.5492  17.7040  17.7040  17.8887  17.8887  17.9921  17.9921
    18.0419  18.0419  18.0658  18.0658  18.1473  18.1947  18.2240  18.2240
    18.2513  18.2513  18.3948  18.4029  18.4799  18.5100  18.5100  18.5270
    18.5270  18.6021  18.7039  18.8109  18.8109  18.9038  18.9291  18.9291
    19.1365  19.1723  19.1723  19.2653  19.2653  19.2914  19.2914  19.3507
    19.3572  19.3746  19.3746  19.4377  19.4377  19.5300  19.5300  19.5350
    19.5351  19.5586  19.5587  19.7810  19.7980  19.7980  19.8507  19.9100
    19.9216  19.9216  19.9418  19.9418  20.0567  20.0893  20.2321  20.2321
    20.3881  20.4880  20.4880  20.5115  20.5161  20.5161  20.5401  20.5535
    20.6502  20.6502  20.6514  20.6514  20.6817  20.6817  20.7091  20.7091
    20.7640  21.1516  21.1543  21.1543  21.5861  21.5861  22.6326  22.6326
    22.6945  22.6945  22.8716

          k = 0.0556 0.2778 0.3889 ( 34929 PWs)   bands (ev):

   -53.5280 -53.5143 -53.5022 -53.4920 -53.4819 -53.4747 -53.4731 -53.4689
   -53.4671 -53.4652 -53.4625 -53.4600 -53.4571 -53.4529 -53.4501 -53.4487
   -53.4479 -53.4463 -53.4443 -53.4440 -53.4411 -53.4393 -53.4364 -53.4339
   -53.4338 -53.4335 -53.4334 -53.4313 -53.4306 -53.4294 -53.4275 -53.4270
   -23.7150 -23.7132 -23.6834 -23.6737 -23.6723 -23.6718 -23.6691 -23.6681
   -23.6631 -23.6405 -23.6401 -23.6401 -23.6327 -23.6292 -23.6205 -23.6197
   -23.6189 -23.6094 -23.6083 -23.6066 -23.5957 -23.5921 -23.5810 -23.5783
   -23.5753 -23.5551 -23.5382 -23.5370 -23.5202 -23.5028 -23.4795 -23.4734
   -23.4671 -23.4513 -23.4495 -23.4369 -23.4366 -23.4358 -23.4220 -23.4167
   -23.3935 -23.3890 -23.3811 -23.3732 -23.3683 -23.3679 -23.3575 -23.3552
   -23.3501 -23.3473 -23.3457 -23.3388 -23.3361 -23.3347 -23.3278 -23.3195
   -23.3178 -23.3169 -23.3163 -23.3153 -23.3107 -23.3024 -23.2963 -23.2959
   -23.2930 -23.2902 -23.2822 -23.2820 -23.2808 -23.2762 -23.2757 -23.2756
   -23.2665 -23.2627 -23.2613 -23.2570 -23.2538 -23.2537 -23.2537 -23.2532
   -23.2474 -23.2412 -23.2385 -23.2353 -23.2343 -23.2328 -23.2327 -23.2253
   -23.2173 -23.2168 -23.2054 -23.1879 -23.1842 -23.1791 -23.1771 -23.1569
    12.9583  13.5396  14.0489  14.4946  14.5125  14.5745  14.5978  14.6121
    14.6215  14.6972  14.7749  14.8131  14.8276  14.8401  14.8623  14.9027
    14.9081  14.9244  14.9433  14.9753  15.0200  15.0357  15.0597  15.0642
    15.1826  15.2062  15.2317  15.2514  15.3583  15.3790  15.3870  15.4589
    15.4811  15.4923  15.5768  15.6070  15.6504  15.6951  15.7105  15.7400
    15.7910  15.8343  15.8853  15.9152  15.9435  16.0665  16.1286  16.1310
    16.1353  16.2279  16.3811  16.3874  16.4027  16.4230  16.5224  16.5539
    16.6228  16.6380  16.6556  16.7523  16.8825  16.8981  16.9004  16.9397
    16.9479  16.9856  17.0052  17.0454  17.0901  17.1358  17.1380  17.1604
    17.1619  17.1985  17.2311  17.2407  17.2959  17.3432  17.4063  17.4494
    17.4575  17.4723  17.4788  17.4857  17.5012  17.5592  17.5971  17.6218
    17.6282  17.6652  17.6773  17.7049  17.7839  17.8339  17.8364  17.9538
    18.0017  18.0108  18.0151  18.0372  18.0707  18.0846  18.0979  18.1189
    18.1515  18.1838  18.2026  18.2870  18.3923  18.4151  18.4170  18.4269
    18.5501  18.5528  18.6997  18.7181  18.7998  18.8471  18.8804  18.9398
    19.0937  19.1056  19.1099  19.1332  19.1923  19.2855  19.3296  19.3325
    19.4088  19.4123  19.4604  19.5539  19.5573  19.5717  19.6259  19.6719
    19.6995  19.7091  19.8361  19.8396  19.8418  19.8751  20.0193  20.0489
    20.0636  20.0697  20.1118  20.1166  20.1268  20.1272  20.1332  20.1676
    20.2128  20.3366  20.3876  20.4052  20.4059  20.4146  20.4240  20.4280
    20.4387  20.4883  20.6558  20.6596  20.6700  20.6804  20.7097  20.7566
    21.0277  21.1469  21.1552  21.1927  21.1988  21.4715  22.2036  22.2807
    22.9973  23.1645  23.2873

          k = 0.0556 0.2778-0.5000 ( 34918 PWs)   bands (ev):

   -53.5218 -53.5218 -53.4975 -53.4975 -53.4786 -53.4786 -53.4703 -53.4703
   -53.4672 -53.4672 -53.4614 -53.4614 -53.4552 -53.4552 -53.4474 -53.4474
   -53.4459 -53.4459 -53.4427 -53.4427 -53.4384 -53.4384 -53.4372 -53.4372
   -53.4361 -53.4361 -53.4312 -53.4312 -53.4309 -53.4309 -53.4272 -53.4272
   -23.6962 -23.6962 -23.6933 -23.6933 -23.6576 -23.6576 -23.6574 -23.6574
   -23.6550 -23.6550 -23.6397 -23.6397 -23.6375 -23.6375 -23.6326 -23.6326
   -23.6312 -23.6312 -23.6157 -23.6157 -23.5856 -23.5856 -23.5823 -23.5823
   -23.5591 -23.5591 -23.5350 -23.5350 -23.5291 -23.5291 -23.4574 -23.4574
   -23.4554 -23.4554 -23.4443 -23.4443 -23.4344 -23.4344 -23.4198 -23.4198
   -23.4128 -23.4128 -23.3565 -23.3565 -23.3545 -23.3545 -23.3523 -23.3523
   -23.3471 -23.3471 -23.3466 -23.3466 -23.3378 -23.3378 -23.3332 -23.3332
   -23.3154 -23.3154 -23.3108 -23.3108 -23.3005 -23.3005 -23.2997 -23.2997
   -23.2878 -23.2878 -23.2827 -23.2827 -23.2814 -23.2814 -23.2748 -23.2748
   -23.2661 -23.2661 -23.2587 -23.2587 -23.2577 -23.2577 -23.2567 -23.2567
   -23.2490 -23.2490 -23.2434 -23.2434 -23.2354 -23.2354 -23.2233 -23.2233
   -23.2209 -23.2209 -23.1900 -23.1900 -23.1839 -23.1839 -23.1660 -23.1660
    13.2247  13.2247  14.2548  14.2548  14.6258  14.6258  14.6952  14.6952
    14.7417  14.7417  14.7548  14.7548  14.7759  14.7759  14.8093  14.8093
    14.9662  14.9663  15.0133  15.0133  15.0334  15.0335  15.0409  15.0409
    15.1599  15.1599  15.2588  15.2588  15.2629  15.2629  15.2814  15.2814
    15.5083  15.5084  15.6074  15.6074  15.6698  15.6698  15.7344  15.7344
    15.7859  15.7859  15.9469  15.9469  15.9771  15.9771  15.9891  15.9891
    16.2783  16.2783  16.4003  16.4003  16.4127  16.4127  16.5040  16.5040
    16.5341  16.5342  16.7333  16.7333  16.9464  16.9464  16.9484  16.9484
    16.9732  16.9732  17.0616  17.0616  17.1189  17.1189  17.1421  17.1421
    17.2314  17.2314  17.2873  17.2873  17.3768  17.3768  17.5037  17.5037
    17.5161  17.5161  17.5449  17.5449  17.5936  17.5936  17.6092  17.6092
    17.7130  17.7130  17.7263  17.7263  17.7367  17.7367  17.7990  17.7990
    17.8951  17.8951  17.9037  17.9037  18.0219  18.0219  18.0309  18.0309
    18.1979  18.1979  18.3424  18.3424  18.4812  18.4812  18.4988  18.4988
    18.5562  18.5563  18.5874  18.5874  18.6650  18.6650  18.7837  18.7837
    18.9834  18.9834  19.2267  19.2267  19.2504  19.2504  19.2884  19.2884
    19.4149  19.4149  19.6164  19.6164  19.6531  19.6531  19.7400  19.7400
    19.8159  19.8159  19.8755  19.8755  19.9256  19.9256  19.9351  19.9351
    20.1376  20.1376  20.1380  20.1380  20.2202  20.2202  20.2720  20.2720
    20.2723  20.2723  20.2840  20.2841  20.3005  20.3005  20.3024  20.3024
    20.3835  20.3835  20.6617  20.6617  20.6776  20.6776  20.7331  20.7331
    20.8654  20.8655  21.3302  21.3302  21.6849  21.6849  21.7024  21.7024
    23.2815  23.2815  23.5929

          k = 0.0556 0.3889 0.3889 ( 34872 PWs)   bands (ev):

   -53.5234 -53.5103 -53.5103 -53.4989 -53.4796 -53.4729 -53.4729 -53.4712
   -53.4681 -53.4658 -53.4658 -53.4622 -53.4490 -53.4490 -53.4459 -53.4459
   -53.4458 -53.4458 -53.4423 -53.4423 -53.4410 -53.4410 -53.4359 -53.4359
   -53.4358 -53.4358 -53.4346 -53.4346 -53.4316 -53.4286 -53.4286 -53.4274
   -23.7033 -23.7032 -23.6657 -23.6657 -23.6645 -23.6645 -23.6609 -23.6594
   -23.6555 -23.6555 -23.6427 -23.6389 -23.6389 -23.6337 -23.6337 -23.6196
   -23.6195 -23.6098 -23.6098 -23.6083 -23.6083 -23.6077 -23.6077 -23.5856
   -23.5842 -23.5842 -23.5598 -23.5346 -23.5290 -23.4996 -23.4996 -23.4571
   -23.4443 -23.4443 -23.4242 -23.4242 -23.4169 -23.4011 -23.4011 -23.3924
   -23.3924 -23.3915 -23.3915 -23.3827 -23.3827 -23.3528 -23.3528 -23.3496
   -23.3496 -23.3451 -23.3451 -23.3414 -23.3394 -23.3394 -23.3367 -23.3367
   -23.3302 -23.3302 -23.3108 -23.3108 -23.3062 -23.3062 -23.3047 -23.2984
   -23.2984 -23.2831 -23.2831 -23.2777 -23.2774 -23.2774 -23.2772 -23.2772
   -23.2652 -23.2628 -23.2628 -23.2624 -23.2624 -23.2579 -23.2532 -23.2475
   -23.2459 -23.2418 -23.2391 -23.2387 -23.2387 -23.2347 -23.2317 -23.2209
   -23.2209 -23.2165 -23.2165 -23.1874 -23.1761 -23.1738 -23.1738 -23.1578
    13.1572  13.7150  13.7151  14.2032  14.5545  14.6709  14.6969  14.6986
    14.7282  14.7282  14.7351  14.7351  14.8846  14.8862  14.8862  14.9740
    14.9740  14.9879  14.9879  15.0049  15.0049  15.0596  15.0596  15.1373
    15.1373  15.2210  15.2237  15.3043  15.3043  15.3742  15.3743  15.3750
    15.3751  15.4063  15.4063  15.4562  15.4562  15.6264  15.6264  15.6616
    15.6616  15.6677  15.6677  15.9250  15.9250  15.9740  16.2191  16.2191
    16.2311  16.2311  16.2868  16.4350  16.4834  16.4961  16.4962  16.5542
    16.5542  16.7970  16.7970  16.8154  16.9606  16.9606  16.9715  17.0885
    17.0886  17.0932  17.0932  17.1171  17.1171  17.1412  17.1524  17.1524
    17.2239  17.2836  17.3474  17.3474  17.4248  17.4248  17.4936  17.4969
    17.5339  17.5358  17.5474  17.5899  17.6014  17.6014  17.6259  17.6259
    17.7095  17.7665  17.7684  17.7684  17.7871  17.7871  17.8050  17.8050
    17.8858  17.8858  17.9065  17.9065  17.9443  17.9443  17.9521  17.9546
    17.9546  17.9570  18.1212  18.1862  18.1862  18.2083  18.2083  18.4335
    18.5550  18.5551  18.5583  18.5583  18.5943  18.5943  18.6450  18.7424
    19.0053  19.2410  19.3029  19.3029  19.3114  19.3114  19.5093  19.5093
    19.5345  19.5345  19.6077  19.6077  19.6597  19.6597  19.7144  19.7440
    19.8581  19.8581  19.9285  19.9639  19.9639  19.9734  19.9734  19.9794
    19.9794  20.0395  20.1369  20.2283  20.2326  20.2568  20.2568  20.2593
    20.2593  20.2856  20.3748  20.3871  20.3871  20.4229  20.4229  20.4300
    20.4300  20.4444  20.4568  20.4568  20.4707  20.4707  20.6016  20.6385
    20.6385  20.9601  21.0529  21.0529  21.6959  21.6959  22.7739  22.7739
    22.8968  22.8968  23.6021

          k = 0.0556 0.3889-0.5000 ( 34908 PWs)   bands (ev):

   -53.5174 -53.5174 -53.5051 -53.5051 -53.4766 -53.4766 -53.4707 -53.4707
   -53.4687 -53.4687 -53.4642 -53.4642 -53.4476 -53.4476 -53.4439 -53.4439
   -53.4432 -53.4432 -53.4419 -53.4419 -53.4397 -53.4397 -53.4387 -53.4387
   -53.4382 -53.4382 -53.4353 -53.4353 -53.4300 -53.4300 -53.4279 -53.4279
   -23.6872 -23.6872 -23.6861 -23.6861 -23.6543 -23.6543 -23.6542 -23.6542
   -23.6457 -23.6457 -23.6412 -23.6412 -23.6352 -23.6352 -23.6343 -23.6343
   -23.6236 -23.6236 -23.6142 -23.6142 -23.6097 -23.6097 -23.6032 -23.6032
   -23.5841 -23.5841 -23.5568 -23.5568 -23.5189 -23.5189 -23.4783 -23.4783
   -23.4221 -23.4221 -23.4168 -23.4168 -23.4096 -23.4096 -23.4017 -23.4017
   -23.3826 -23.3826 -23.3709 -23.3709 -23.3690 -23.3690 -23.3673 -23.3673
   -23.3625 -23.3625 -23.3424 -23.3424 -23.3346 -23.3346 -23.3293 -23.3293
   -23.3200 -23.3200 -23.3162 -23.3162 -23.3123 -23.3123 -23.3046 -23.3046
   -23.2927 -23.2927 -23.2923 -23.2923 -23.2719 -23.2718 -23.2709 -23.2709
   -23.2708 -23.2708 -23.2653 -23.2653 -23.2505 -23.2505 -23.2483 -23.2483
   -23.2460 -23.2460 -23.2431 -23.2431 -23.2306 -23.2306 -23.2290 -23.2290
   -23.2264 -23.2264 -23.2007 -23.2007 -23.1727 -23.1727 -23.1636 -23.1636
    13.4128  13.4128  13.9393  13.9393  14.6299  14.6299  14.7103  14.7103
    14.7630  14.7630  14.8331  14.8331  14.8525  14.8525  14.8785  14.8785
    14.9202  14.9202  15.0967  15.0967  15.1668  15.1668  15.1700  15.1700
    15.1730  15.1730  15.1757  15.1757  15.2378  15.2378  15.2744  15.2744
    15.4162  15.4162  15.4650  15.4650  15.5168  15.5168  15.5267  15.5267
    15.5478  15.5478  15.7968  15.7968  16.0556  16.0556  16.0581  16.0581
    16.3459  16.3459  16.3568  16.3568  16.5336  16.5337  16.5429  16.5429
    16.6860  16.6860  16.7030  16.7030  16.9313  16.9313  17.1370  17.1370
    17.1455  17.1455  17.2170  17.2170  17.2231  17.2231  17.2657  17.2657
    17.3495  17.3495  17.3523  17.3523  17.3641  17.3641  17.5200  17.5200
    17.5838  17.5838  17.5971  17.5971  17.6194  17.6194  17.6432  17.6432
    17.6463  17.6463  17.6867  17.6867  17.7122  17.7122  17.7311  17.7311
    17.8505  17.8505  17.8580  17.8580  17.9809  17.9809  17.9963  17.9963
    17.9984  17.9984  18.0813  18.0813  18.2766  18.2766  18.2831  18.2831
    18.3716  18.3716  18.3860  18.3860  18.5044  18.5044  18.6438  18.6438
    19.1647  19.1647  19.3524  19.3524  19.4562  19.4562  19.4880  19.4880
    19.5187  19.5187  19.6874  19.6874  19.7611  19.7611  19.7750  19.7750
    19.8327  19.8327  19.9000  19.9000  19.9939  19.9939  20.1006  20.1006
    20.1508  20.1508  20.2196  20.2196  20.2727  20.2727  20.2740  20.2740
    20.2898  20.2898  20.3407  20.3407  20.3431  20.3431  20.3680  20.3680
    20.3716  20.3716  20.4360  20.4360  20.4923  20.4923  20.5227  20.5227
    20.6386  20.6386  20.9501  20.9501  22.2413  22.2413  22.2722  22.2722
    23.4123  23.4124  23.5072

          k = 0.0556-0.5000-0.5000 ( 34924 PWs)   bands (ev):

   -53.5118 -53.5118 -53.5118 -53.5118 -53.4739 -53.4739 -53.4739 -53.4739
   -53.4666 -53.4666 -53.4666 -53.4666 -53.4409 -53.4409 -53.4409 -53.4409
   -53.4409 -53.4409 -53.4409 -53.4409 -53.4408 -53.4408 -53.4408 -53.4408
   -53.4408 -53.4408 -53.4408 -53.4408 -53.4289 -53.4289 -53.4289 -53.4289
   -23.6729 -23.6729 -23.6729 -23.6729 -23.6729 -23.6729 -23.6729 -23.6729
   -23.6297 -23.6297 -23.6297 -23.6297 -23.6297 -23.6297 -23.6297 -23.6297
   -23.6236 -23.6236 -23.6236 -23.6236 -23.6102 -23.6102 -23.6102 -23.6102
   -23.5860 -23.5860 -23.5860 -23.5860 -23.4991 -23.4991 -23.4991 -23.4991
   -23.3908 -23.3907 -23.3907 -23.3907 -23.3907 -23.3907 -23.3907 -23.3907
   -23.3876 -23.3876 -23.3876 -23.3876 -23.3876 -23.3876 -23.3875 -23.3875
   -23.3465 -23.3465 -23.3465 -23.3465 -23.3248 -23.3248 -23.3248 -23.3248
   -23.3248 -23.3248 -23.3248 -23.3248 -23.3242 -23.3242 -23.3242 -23.3242
   -23.2826 -23.2826 -23.2826 -23.2826 -23.2826 -23.2826 -23.2826 -23.2826
   -23.2600 -23.2600 -23.2600 -23.2600 -23.2520 -23.2520 -23.2520 -23.2520
   -23.2382 -23.2382 -23.2382 -23.2382 -23.2351 -23.2351 -23.2351 -23.2351
   -23.2144 -23.2144 -23.2144 -23.2144 -23.1658 -23.1658 -23.1658 -23.1658
    13.6541  13.6541  13.6541  13.6541  14.6592  14.6592  14.6592  14.6593
    14.8092  14.8092  14.8092  14.8092  14.9468  14.9468  14.9468  14.9468
    15.0497  15.0497  15.0497  15.0497  15.0497  15.0497  15.0497  15.0497
    15.3381  15.3381  15.3381  15.3381  15.3381  15.3381  15.3381  15.3381
    15.3402  15.3402  15.3402  15.3402  15.3402  15.3402  15.3402  15.3402
    15.6015  15.6015  15.6015  15.6015  16.1923  16.1923  16.1923  16.1923
    16.1923  16.1923  16.1923  16.1924  16.6370  16.6370  16.6370  16.6370
    16.7983  16.7983  16.7983  16.7983  16.9901  16.9901  16.9901  16.9902
    17.1845  17.1845  17.1845  17.1845  17.2076  17.2076  17.2076  17.2076
    17.4631  17.4631  17.4631  17.4631  17.4631  17.4631  17.4631  17.4631
    17.6002  17.6002  17.6002  17.6003  17.7161  17.7161  17.7161  17.7161
    17.7278  17.7278  17.7278  17.7278  17.7975  17.7975  17.7975  17.7975
    17.7975  17.7975  17.7975  17.7975  17.8422  17.8422  17.8422  17.8422
    18.0214  18.0214  18.0214  18.0214  18.1776  18.1776  18.1776  18.1776
    18.1776  18.1776  18.1776  18.1777  18.5747  18.5747  18.5747  18.5747
    19.3513  19.3513  19.3513  19.3513  19.4906  19.4906  19.4906  19.4906
    19.6677  19.6677  19.6677  19.6677  19.6677  19.6677  19.6677  19.6677
    20.0927  20.0928  20.0928  20.0928  20.1674  20.1674  20.1674  20.1674
    20.1757  20.1757  20.1757  20.1757  20.1757  20.1757  20.1757  20.1757
    20.3488  20.3488  20.3488  20.3488  20.3802  20.3802  20.3802  20.3802
    20.3802  20.3802  20.3802  20.3802  20.3901  20.3901  20.3901  20.3901
    20.6375  20.6375  20.6375  20.6375  22.8512  22.8512  22.8512  22.8512
    22.8512  22.8512  22.8512

          k = 0.1667 0.1667 0.1667 ( 34877 PWs)   bands (ev):

   -53.5379 -53.4978 -53.4978 -53.4978 -53.4723 -53.4723 -53.4722 -53.4684
   -53.4684 -53.4684 -53.4613 -53.4536 -53.4536 -53.4536 -53.4536 -53.4536
   -53.4536 -53.4534 -53.4534 -53.4534 -53.4428 -53.4428 -53.4428 -53.4282
   -53.4282 -53.4282 -53.4281 -53.4281 -53.4281 -53.4281 -53.4281 -53.4281
   -23.7383 -23.7383 -23.7383 -23.7161 -23.7009 -23.7009 -23.7009 -23.6173
   -23.6173 -23.6173 -23.6056 -23.6056 -23.6056 -23.6056 -23.6056 -23.6056
   -23.5952 -23.5952 -23.5952 -23.5952 -23.5952 -23.5952 -23.5526 -23.5526
   -23.5526 -23.5286 -23.5286 -23.5286 -23.5022 -23.5022 -23.5022 -23.5022
   -23.5022 -23.5022 -23.4513 -23.4513 -23.4513 -23.3954 -23.3954 -23.3954
   -23.3842 -23.3842 -23.3842 -23.3842 -23.3842 -23.3842 -23.3842 -23.3842
   -23.3842 -23.3614 -23.3614 -23.3614 -23.3570 -23.3570 -23.3570 -23.3570
   -23.3570 -23.3570 -23.3167 -23.3167 -23.3167 -23.2913 -23.2913 -23.2913
   -23.2852 -23.2852 -23.2852 -23.2615 -23.2615 -23.2615 -23.2565 -23.2565
   -23.2565 -23.2466 -23.2466 -23.2466 -23.2466 -23.2466 -23.2466 -23.2405
   -23.2405 -23.2405 -23.2290 -23.2290 -23.2290 -23.2254 -23.2254 -23.2252
   -23.2252 -23.2252 -23.2052 -23.2052 -23.2052 -23.1883 -23.1519 -23.1519
    12.5364  14.1800  14.1800  14.1801  14.3404  14.3404  14.3405  14.3416
    14.4894  14.4894  14.4894  14.7303  14.7303  14.7303  14.8361  14.8361
    14.8361  15.1073  15.1073  15.1074  15.3420  15.3421  15.3421  15.3421
    15.3421  15.3421  15.5057  15.5057  15.5057  15.5697  15.5697  15.5697
    15.5697  15.5697  15.5697  15.6187  15.6187  15.6187  15.9375  15.9375
    15.9375  15.9375  15.9375  15.9375  16.1361  16.1361  16.1361  16.3738
    16.3738  16.3738  16.5435  16.5436  16.5436  16.5436  16.5436  16.5436
    16.5742  16.5742  16.5743  16.6185  16.6185  16.6185  16.6185  16.6185
    16.6185  16.9576  16.9576  16.9576  17.0263  17.0263  17.0264  17.0692
    17.0692  17.0692  17.0692  17.0692  17.0692  17.1027  17.1492  17.1492
    17.1492  17.1979  17.1979  17.3086  17.3087  17.3087  17.3116  17.3116
    17.7471  17.7471  17.7471  17.9629  17.9629  17.9629  17.9811  17.9811
    17.9811  18.1595  18.1595  18.1595  18.3351  18.3351  18.3351  18.3699
    18.3699  18.3699  18.3700  18.3700  18.3700  18.6846  18.6846  18.6846
    18.8362  18.8362  18.8362  18.9226  18.9226  18.9226  18.9482  18.9482
    18.9482  19.0189  19.0189  19.0189  19.0189  19.0189  19.0189  19.0554
    19.0554  19.3557  19.4615  19.4615  19.4615  19.4615  19.4615  19.4615
    19.6449  19.6449  19.6449  19.6751  19.6751  19.6751  19.7412  19.7412
    19.7412  19.9924  19.9924  19.9924  20.1036  20.1036  20.1036  20.2659
    20.2659  20.2659  20.3345  20.3345  20.5647  20.5647  20.5647  20.7463
    20.7463  20.7463  20.7463  20.7463  20.7463  20.8315  20.8315  20.8315
    21.2439  21.2439  21.2439  21.7847  21.7847  21.7847  22.6009  22.6009
    22.6009  22.6009  22.6009

          k = 0.1667 0.1667 0.2778 ( 34904 PWs)   bands (ev):

   -53.5345 -53.5071 -53.4957 -53.4957 -53.4782 -53.4782 -53.4713 -53.4672
   -53.4672 -53.4638 -53.4591 -53.4570 -53.4570 -53.4535 -53.4535 -53.4534
   -53.4534 -53.4509 -53.4477 -53.4477 -53.4436 -53.4394 -53.4394 -53.4316
   -53.4303 -53.4303 -53.4293 -53.4293 -53.4282 -53.4282 -53.4281 -53.4281
   -23.7320 -23.7256 -23.7256 -23.6960 -23.6918 -23.6918 -23.6867 -23.6466
   -23.6303 -23.6303 -23.6187 -23.6187 -23.6146 -23.6146 -23.6142 -23.6142
   -23.6043 -23.6043 -23.5958 -23.5958 -23.5952 -23.5952 -23.5791 -23.5694
   -23.5393 -23.5393 -23.5275 -23.5275 -23.5065 -23.5065 -23.4870 -23.4870
   -23.4780 -23.4780 -23.4711 -23.4711 -23.4167 -23.4167 -23.4156 -23.4067
   -23.4067 -23.3972 -23.3972 -23.3763 -23.3625 -23.3625 -23.3596 -23.3596
   -23.3586 -23.3586 -23.3567 -23.3567 -23.3549 -23.3514 -23.3449 -23.3449
   -23.3418 -23.3418 -23.3127 -23.3029 -23.2977 -23.2977 -23.2962 -23.2958
   -23.2958 -23.2798 -23.2792 -23.2792 -23.2735 -23.2735 -23.2664 -23.2664
   -23.2663 -23.2663 -23.2597 -23.2487 -23.2487 -23.2464 -23.2464 -23.2453
   -23.2435 -23.2435 -23.2350 -23.2350 -23.2288 -23.2207 -23.2169 -23.2169
   -23.2112 -23.2099 -23.2069 -23.2050 -23.1994 -23.1994 -23.1584 -23.1542
    12.6796  13.8263  14.2719  14.2719  14.3772  14.4139  14.4354  14.4354
    14.5739  14.5739  14.6192  14.7921  14.8293  14.8311  14.8311  14.9142
    14.9212  14.9212  14.9256  14.9256  15.1564  15.1564  15.3043  15.3043
    15.3184  15.3895  15.3895  15.4210  15.4305  15.4305  15.4608  15.4608
    15.5826  15.5826  15.5936  15.5936  15.6565  15.6565  15.6741  15.6742
    15.9476  15.9476  15.9554  15.9554  16.1866  16.1866  16.2896  16.2897
    16.3087  16.3087  16.3512  16.3566  16.3566  16.3844  16.5161  16.5161
    16.5943  16.5943  16.6317  16.6317  16.7102  16.7102  16.8314  16.8982
    16.8982  16.9023  16.9725  16.9725  16.9846  16.9846  17.0294  17.0627
    17.0627  17.0810  17.0810  17.2021  17.2197  17.2393  17.2402  17.2402
    17.3315  17.3656  17.3763  17.3985  17.3985  17.4207  17.5112  17.5112
    17.6159  17.6159  17.7087  17.7087  17.7737  17.7738  17.9460  17.9868
    17.9868  18.1117  18.1117  18.1427  18.1427  18.1427  18.2825  18.4646
    18.4646  18.4817  18.4817  18.5359  18.5666  18.5666  18.6096  18.6096
    18.6338  18.7681  18.7681  18.8194  18.8194  18.8268  18.8268  18.9143
    18.9585  18.9651  18.9651  19.0147  19.0147  19.1039  19.1122  19.1987
    19.2279  19.2279  19.4993  19.4993  19.5051  19.5378  19.5378  19.7152
    19.7152  19.7230  19.7230  19.7271  19.7271  19.7696  19.8397  19.8397
    19.8555  19.8555  19.8715  20.1331  20.1331  20.1386  20.1494  20.2278
    20.2561  20.3407  20.3407  20.4467  20.5201  20.5396  20.5396  20.6048
    20.6048  20.6064  20.6064  20.7506  20.7506  20.7568  20.8105  20.8105
    20.8544  20.8544  21.1551  21.9322  21.9322  22.1408  22.1408  22.4236
    22.5355  22.5355  22.5985

          k = 0.1667 0.1667 0.3889 ( 34946 PWs)   bands (ev):

   -53.5296 -53.5157 -53.4925 -53.4925 -53.4836 -53.4836 -53.4700 -53.4662
   -53.4653 -53.4653 -53.4602 -53.4602 -53.4535 -53.4535 -53.4535 -53.4535
   -53.4505 -53.4486 -53.4449 -53.4422 -53.4422 -53.4366 -53.4362 -53.4362
   -53.4334 -53.4334 -53.4311 -53.4311 -53.4282 -53.4282 -53.4282 -53.4282
   -23.7190 -23.7072 -23.7072 -23.6785 -23.6785 -23.6751 -23.6706 -23.6659
   -23.6577 -23.6577 -23.6412 -23.6412 -23.6179 -23.6179 -23.6122 -23.6122
   -23.6101 -23.6096 -23.6096 -23.6064 -23.5985 -23.5985 -23.5823 -23.5823
   -23.5530 -23.5530 -23.5066 -23.5066 -23.5000 -23.5000 -23.4879 -23.4879
   -23.4690 -23.4690 -23.4543 -23.4543 -23.4429 -23.4429 -23.4285 -23.4285
   -23.4135 -23.4134 -23.3780 -23.3648 -23.3570 -23.3570 -23.3564 -23.3564
   -23.3456 -23.3423 -23.3423 -23.3324 -23.3323 -23.3323 -23.3282 -23.3282
   -23.3238 -23.3238 -23.3192 -23.3098 -23.3093 -23.3093 -23.3086 -23.2884
   -23.2884 -23.2874 -23.2874 -23.2836 -23.2836 -23.2768 -23.2768 -23.2742
   -23.2704 -23.2704 -23.2571 -23.2539 -23.2539 -23.2498 -23.2462 -23.2462
   -23.2459 -23.2459 -23.2451 -23.2450 -23.2387 -23.2380 -23.2164 -23.2094
   -23.2079 -23.2079 -23.1981 -23.1981 -23.1949 -23.1872 -23.1680 -23.1611
    12.8893  13.4767  14.4021  14.4022  14.4553  14.5155  14.5730  14.5730
    14.6994  14.6994  14.7297  14.7404  14.7404  14.7479  14.7844  14.8836
    14.9472  14.9472  14.9795  14.9795  15.0387  15.0387  15.0672  15.0673
    15.1496  15.1973  15.3235  15.3235  15.3993  15.3993  15.4455  15.4455
    15.5426  15.5426  15.5516  15.5516  15.7229  15.7229  15.7264  15.7264
    15.9623  15.9623  15.9985  15.9986  16.1097  16.1097  16.1179  16.1179
    16.1807  16.1807  16.2580  16.2580  16.4348  16.4348  16.4578  16.5570
    16.6627  16.6627  16.6741  16.6741  16.6973  16.8235  16.8235  16.8586
    16.8586  16.9062  16.9091  16.9092  17.0839  17.0839  17.0910  17.0910
    17.1286  17.2153  17.3060  17.3060  17.3196  17.3643  17.3643  17.4257
    17.4257  17.4348  17.4622  17.4730  17.4879  17.4879  17.5209  17.5209
    17.5661  17.5900  17.6540  17.7104  17.7591  17.9334  17.9334  17.9367
    17.9910  17.9910  18.0200  18.0200  18.0794  18.0794  18.2257  18.2257
    18.3099  18.3906  18.5535  18.5864  18.5865  18.6155  18.6155  18.6752
    18.7455  18.7455  18.7474  18.7474  18.7826  18.7826  18.8257  18.8749
    18.8749  18.8787  18.8787  18.9770  18.9770  19.0212  19.0212  19.1750
    19.3782  19.3941  19.4582  19.4713  19.4793  19.4793  19.5806  19.5806
    19.7901  19.7901  19.8886  19.8886  19.9239  19.9554  19.9567  19.9567
    19.9743  19.9743  19.9932  19.9932  20.0287  20.0287  20.0783  20.4017
    20.4179  20.4215  20.4215  20.4234  20.4234  20.4248  20.4248  20.4897
    20.4897  20.6520  20.6562  20.7581  20.7581  20.7588  20.7588  20.7749
    20.7879  20.7879  21.0235  21.6776  21.6776  21.9971  22.1149  22.1149
    22.4323  22.4323  23.0045

          k = 0.1667 0.1667-0.5000 ( 34928 PWs)   bands (ev):

   -53.5233 -53.5233 -53.4885 -53.4885 -53.4885 -53.4885 -53.4682 -53.4682
   -53.4630 -53.4630 -53.4630 -53.4630 -53.4535 -53.4535 -53.4535 -53.4535
   -53.4466 -53.4466 -53.4429 -53.4429 -53.4374 -53.4374 -53.4374 -53.4374
   -53.4335 -53.4335 -53.4335 -53.4335 -53.4282 -53.4282 -53.4282 -53.4282
   -23.6997 -23.6997 -23.6841 -23.6841 -23.6841 -23.6841 -23.6615 -23.6615
   -23.6615 -23.6615 -23.6414 -23.6414 -23.6389 -23.6389 -23.6171 -23.6171
   -23.6171 -23.6171 -23.6036 -23.6036 -23.6036 -23.6036 -23.5679 -23.5679
   -23.5679 -23.5678 -23.5002 -23.5002 -23.5002 -23.5002 -23.4714 -23.4714
   -23.4714 -23.4714 -23.4494 -23.4494 -23.4494 -23.4494 -23.4326 -23.4326
   -23.4326 -23.4326 -23.3564 -23.3564 -23.3564 -23.3564 -23.3500 -23.3500
   -23.3417 -23.3417 -23.3335 -23.3335 -23.3243 -23.3243 -23.3243 -23.3243
   -23.3085 -23.3085 -23.3085 -23.3085 -23.3061 -23.3061 -23.3061 -23.3061
   -23.3056 -23.3056 -23.3056 -23.3056 -23.2716 -23.2716 -23.2615 -23.2615
   -23.2615 -23.2614 -23.2600 -23.2600 -23.2600 -23.2600 -23.2543 -23.2543
   -23.2537 -23.2537 -23.2458 -23.2458 -23.2457 -23.2457 -23.2126 -23.2126
   -23.2011 -23.2011 -23.2011 -23.2011 -23.1802 -23.1802 -23.1723 -23.1723
    13.1587  13.1587  14.5620  14.5620  14.5620  14.5620  14.5740  14.5740
    14.6333  14.6333  14.7468  14.7469  14.7469  14.7469  14.8646  14.8646
    14.8646  14.8646  14.9799  14.9799  15.0036  15.0036  15.1711  15.1711
    15.1711  15.1711  15.1774  15.1774  15.1774  15.1774  15.4979  15.4979
    15.4979  15.4979  15.6740  15.6740  15.6740  15.6741  15.9031  15.9031
    15.9031  15.9031  15.9974  15.9974  15.9974  15.9974  16.0758  16.0758
    16.0758  16.0758  16.3441  16.3441  16.3441  16.3441  16.5680  16.5680
    16.7420  16.7420  16.7420  16.7420  16.7451  16.7451  16.7524  16.7524
    16.7524  16.7524  17.0932  17.0932  17.0932  17.0932  17.1524  17.1524
    17.1524  17.1524  17.1885  17.1885  17.3837  17.3837  17.3837  17.3837
    17.4373  17.4373  17.5867  17.5867  17.6009  17.6009  17.6255  17.6255
    17.6255  17.6255  17.7405  17.7405  17.8797  17.8797  17.8797  17.8797
    17.8829  17.8829  17.9820  17.9820  18.0510  18.0510  18.0510  18.0511
    18.4983  18.4983  18.4983  18.4983  18.6728  18.6728  18.6728  18.6728
    18.6769  18.6769  18.7594  18.7594  18.7594  18.7594  18.8394  18.8394
    18.8394  18.8394  18.8887  18.8887  18.8887  18.8887  19.0824  19.0824
    19.2672  19.2672  19.6685  19.6685  19.6860  19.6860  19.6860  19.6860
    19.7282  19.7282  19.7325  19.7325  19.7326  19.7326  20.1595  20.1595
    20.1595  20.1595  20.2081  20.2081  20.2081  20.2081  20.2278  20.2278
    20.2278  20.2278  20.2330  20.2330  20.2330  20.2330  20.2665  20.2665
    20.5363  20.5363  20.7701  20.7701  20.7701  20.7701  20.8527  20.8527
    21.2139  21.2139  21.2139  21.2139  21.3730  21.3730  22.2897  22.2897
    22.2897  22.2897  23.4687

          k = 0.1667 0.2778 0.2778 ( 34913 PWs)   bands (ev):

   -53.5312 -53.5047 -53.5047 -53.4936 -53.4849 -53.4770 -53.4770 -53.4671
   -53.4660 -53.4581 -53.4581 -53.4567 -53.4567 -53.4543 -53.4503 -53.4503
   -53.4502 -53.4502 -53.4479 -53.4479 -53.4405 -53.4405 -53.4368 -53.4315
   -53.4315 -53.4314 -53.4314 -53.4306 -53.4306 -53.4291 -53.4291 -53.4283
   -23.7220 -23.7220 -23.7116 -23.6830 -23.6795 -23.6795 -23.6738 -23.6445
   -23.6445 -23.6371 -23.6371 -23.6220 -23.6220 -23.6177 -23.6177 -23.6148
   -23.6148 -23.6120 -23.6119 -23.6114 -23.6092 -23.6092 -23.5760 -23.5760
   -23.5538 -23.5538 -23.5520 -23.4982 -23.4893 -23.4893 -23.4878 -23.4821
   -23.4821 -23.4646 -23.4646 -23.4390 -23.4332 -23.4332 -23.4127 -23.3884
   -23.3884 -23.3849 -23.3849 -23.3825 -23.3825 -23.3750 -23.3750 -23.3520
   -23.3520 -23.3520 -23.3461 -23.3461 -23.3419 -23.3419 -23.3415 -23.3415
   -23.3326 -23.3326 -23.3194 -23.3194 -23.2982 -23.2982 -23.2942 -23.2913
   -23.2913 -23.2824 -23.2804 -23.2776 -23.2776 -23.2755 -23.2711 -23.2711
   -23.2699 -23.2698 -23.2689 -23.2650 -23.2650 -23.2509 -23.2509 -23.2493
   -23.2493 -23.2484 -23.2333 -23.2276 -23.2238 -23.2202 -23.2194 -23.2165
   -23.2165 -23.2017 -23.2017 -23.1979 -23.1979 -23.1904 -23.1633 -23.1553
    12.8182  13.9281  13.9281  14.3356  14.3882  14.5085  14.5085  14.5147
    14.6346  14.6969  14.7097  14.7098  14.7828  14.7828  14.8919  14.8919
    14.9165  14.9166  14.9396  14.9573  15.1852  15.1852  15.2350  15.2350
    15.2358  15.2358  15.4126  15.4126  15.4215  15.4215  15.4426  15.4426
    15.4602  15.4602  15.4686  15.5258  15.5258  15.6948  15.6948  15.7175
    15.7352  15.7352  15.9447  15.9447  16.1842  16.1843  16.2355  16.2665
    16.2814  16.2814  16.3728  16.3728  16.3864  16.3864  16.5249  16.5660
    16.5660  16.7233  16.7233  16.7500  16.7500  16.8178  16.8178  16.8636
    16.8758  16.8758  16.9600  16.9600  16.9821  17.0363  17.0363  17.1760
    17.2400  17.2599  17.2599  17.2930  17.3072  17.3072  17.3679  17.3679
    17.3721  17.4030  17.4241  17.4829  17.4863  17.4863  17.5238  17.5238
    17.5403  17.5572  17.6754  17.6754  17.7822  17.7822  17.9180  17.9180
    17.9274  17.9729  17.9729  18.0083  18.2273  18.2273  18.2747  18.2748
    18.3047  18.3321  18.3321  18.3610  18.3610  18.5805  18.5875  18.6294
    18.6556  18.6556  18.6569  18.6972  18.6972  18.9158  18.9158  18.9394
    19.0264  19.0538  19.0538  19.0833  19.0833  19.0921  19.1488  19.1488
    19.2204  19.2204  19.2434  19.3166  19.3166  19.5475  19.5475  19.7287
    19.7722  19.7722  19.8019  19.8019  19.9585  19.9585  19.9624  19.9643
    20.0122  20.0122  20.0156  20.0156  20.1437  20.1760  20.1760  20.2155
    20.2597  20.2842  20.4991  20.5305  20.5305  20.5402  20.5402  20.5792
    20.6180  20.6180  20.6196  20.6196  20.7096  20.7096  20.7483  20.7483
    20.7679  20.7698  20.7699  21.8515  22.0841  22.0841  22.6198  22.6198
    22.6842  22.6842  23.1173

          k = 0.1667 0.2778 0.3889 ( 34926 PWs)   bands (ev):

   -53.5265 -53.5130 -53.5011 -53.4911 -53.4906 -53.4822 -53.4752 -53.4702
   -53.4643 -53.4596 -53.4567 -53.4562 -53.4550 -53.4527 -53.4498 -53.4495
   -53.4483 -53.4471 -53.4441 -53.4428 -53.4423 -53.4377 -53.4363 -53.4344
   -53.4344 -53.4341 -53.4330 -53.4313 -53.4309 -53.4305 -53.4288 -53.4285
   -23.7115 -23.7064 -23.6925 -23.6719 -23.6703 -23.6689 -23.6622 -23.6613
   -23.6469 -23.6436 -23.6396 -23.6390 -23.6385 -23.6351 -23.6254 -23.6241
   -23.6214 -23.6185 -23.6107 -23.6089 -23.6086 -23.6024 -23.6020 -23.5848
   -23.5844 -23.5681 -23.5257 -23.4991 -23.4989 -23.4740 -23.4694 -23.4670
   -23.4664 -23.4565 -23.4491 -23.4474 -23.4423 -23.4302 -23.4068 -23.4064
   -23.4038 -23.4036 -23.3940 -23.3756 -23.3645 -23.3558 -23.3500 -23.3472
   -23.3471 -23.3425 -23.3421 -23.3403 -23.3347 -23.3311 -23.3309 -23.3256
   -23.3248 -23.3216 -23.3194 -23.3189 -23.3172 -23.3153 -23.3081 -23.3001
   -23.2942 -23.2915 -23.2910 -23.2851 -23.2843 -23.2794 -23.2757 -23.2734
   -23.2675 -23.2629 -23.2628 -23.2608 -23.2583 -23.2574 -23.2569 -23.2561
   -23.2553 -23.2508 -23.2500 -23.2343 -23.2291 -23.2269 -23.2146 -23.2126
   -23.2052 -23.2012 -23.1997 -23.1904 -23.1859 -23.1814 -23.1727 -23.1596
    13.0212  13.5896  14.0746  14.4249  14.4376  14.4700  14.6093  14.6330
    14.6418  14.6457  14.6546  14.7325  14.8369  14.8376  14.8744  14.9761
    14.9825  15.0111  15.0215  15.0349  15.0388  15.0392  15.0951  15.1569
    15.1951  15.2292  15.2467  15.2572  15.3405  15.3554  15.3698  15.4502
    15.4631  15.4801  15.5074  15.5166  15.5171  15.5365  15.5539  15.7571
    15.8472  15.8942  15.9493  15.9583  15.9757  16.0000  16.1213  16.1637
    16.1686  16.3454  16.3547  16.3823  16.4314  16.4551  16.5110  16.5759
    16.5985  16.6531  16.6729  16.6803  16.8117  16.8382  16.8854  16.9506
    16.9767  16.9778  16.9916  17.1124  17.1570  17.1820  17.1902  17.2555
    17.2557  17.2839  17.3024  17.3074  17.3187  17.3612  17.3625  17.4426
    17.4488  17.4510  17.4807  17.4996  17.5700  17.5822  17.5978  17.6109
    17.6261  17.6571  17.6624  17.6807  17.7480  17.8170  17.8251  17.9043
    17.9073  17.9275  17.9339  17.9543  17.9968  18.0484  18.0667  18.1013
    18.1016  18.1373  18.3128  18.3135  18.4378  18.4984  18.5206  18.6306
    18.6414  18.7054  18.7310  18.7767  18.8082  18.8193  18.8251  18.8374
    18.8394  18.8993  19.0023  19.0206  19.0327  19.0743  19.1353  19.1577
    19.1710  19.3448  19.3485  19.3709  19.3958  19.4552  19.6725  19.7901
    19.8302  19.8430  19.8577  19.8687  19.9089  19.9146  20.0228  20.0777
    20.0935  20.1138  20.1536  20.1645  20.1669  20.1743  20.1838  20.1979
    20.3290  20.3892  20.4107  20.4293  20.4317  20.4471  20.4546  20.4761
    20.4920  20.5184  20.6406  20.6409  20.6474  20.6596  20.7110  20.7187
    20.7200  21.2038  21.2331  21.6299  21.8515  22.0047  22.1989  22.4920
    22.8033  23.0566  23.3031

          k = 0.1667 0.2778-0.5000 ( 34924 PWs)   bands (ev):

   -53.5203 -53.5203 -53.4965 -53.4965 -53.4868 -53.4868 -53.4729 -53.4729
   -53.4622 -53.4622 -53.4557 -53.4557 -53.4549 -53.4549 -53.4488 -53.4488
   -53.4445 -53.4445 -53.4425 -53.4425 -53.4387 -53.4387 -53.4382 -53.4382
   -53.4351 -53.4351 -53.4323 -53.4323 -53.4311 -53.4311 -53.4286 -53.4286
   -23.6946 -23.6946 -23.6860 -23.6860 -23.6692 -23.6692 -23.6555 -23.6555
   -23.6541 -23.6541 -23.6377 -23.6377 -23.6344 -23.6344 -23.6310 -23.6310
   -23.6233 -23.6233 -23.6166 -23.6166 -23.6082 -23.6081 -23.5935 -23.5935
   -23.5854 -23.5854 -23.5029 -23.5029 -23.4960 -23.4960 -23.4629 -23.4629
   -23.4494 -23.4494 -23.4351 -23.4351 -23.4310 -23.4310 -23.4279 -23.4279
   -23.4217 -23.4217 -23.3593 -23.3593 -23.3563 -23.3563 -23.3485 -23.3485
   -23.3464 -23.3464 -23.3438 -23.3438 -23.3302 -23.3302 -23.3302 -23.3302
   -23.3123 -23.3123 -23.3114 -23.3114 -23.3086 -23.3086 -23.3028 -23.3028
   -23.3009 -23.3009 -23.2971 -23.2971 -23.2969 -23.2969 -23.2830 -23.2830
   -23.2638 -23.2638 -23.2629 -23.2629 -23.2601 -23.2601 -23.2508 -23.2508
   -23.2462 -23.2462 -23.2414 -23.2414 -23.2406 -23.2406 -23.2095 -23.2095
   -23.2051 -23.2051 -23.1860 -23.1860 -23.1849 -23.1849 -23.1684 -23.1684
    13.2819  13.2819  14.2586  14.2586  14.5236  14.5236  14.5334  14.5334
    14.7254  14.7254  14.7884  14.7884  14.8196  14.8196  14.8665  14.8665
    14.9994  14.9994  15.0608  15.0608  15.0796  15.0796  15.1016  15.1017
    15.1888  15.1888  15.2277  15.2277  15.2885  15.2885  15.2901  15.2901
    15.4462  15.4462  15.4790  15.4790  15.5644  15.5644  15.7391  15.7391
    15.8545  15.8545  15.9821  15.9821  16.0164  16.0164  16.0533  16.0533
    16.1127  16.1127  16.4581  16.4581  16.4768  16.4768  16.5257  16.5257
    16.5514  16.5514  16.7459  16.7459  16.7478  16.7478  16.9608  16.9608
    17.0047  17.0047  17.1571  17.1571  17.1884  17.1884  17.2529  17.2529
    17.2865  17.2865  17.3699  17.3699  17.3753  17.3753  17.4580  17.4580
    17.5091  17.5091  17.5275  17.5275  17.5840  17.5840  17.6035  17.6035
    17.6272  17.6272  17.6836  17.6836  17.8133  17.8133  17.8349  17.8349
    17.8661  17.8661  17.8761  17.8761  17.9011  17.9011  17.9144  17.9144
    18.3016  18.3016  18.3855  18.3855  18.4002  18.4002  18.6113  18.6113
    18.6759  18.6759  18.6814  18.6814  18.6903  18.6903  18.7166  18.7166
    18.8884  18.8884  18.9198  18.9198  19.0632  19.0632  19.1257  19.1257
    19.2640  19.2640  19.5923  19.5923  19.6028  19.6028  19.6325  19.6325
    19.6802  19.6802  19.8907  19.8907  19.9657  19.9657  20.0421  20.0422
    20.0891  20.0891  20.2470  20.2470  20.2818  20.2818  20.3073  20.3073
    20.3087  20.3087  20.3446  20.3446  20.3576  20.3576  20.3688  20.3688
    20.4948  20.4948  20.5424  20.5424  20.6718  20.6718  20.6744  20.6744
    21.1736  21.1736  21.7034  21.7034  21.8452  21.8452  21.9168  21.9168
    22.9520  22.9520  23.9941

          k = 0.1667 0.3889 0.3889 ( 34910 PWs)   bands (ev):

   -53.5219 -53.5090 -53.5090 -53.4979 -53.4878 -53.4800 -53.4800 -53.4739
   -53.4629 -53.4588 -53.4588 -53.4564 -53.4488 -53.4488 -53.4459 -53.4459
   -53.4458 -53.4458 -53.4435 -53.4435 -53.4398 -53.4398 -53.4359 -53.4359
   -53.4358 -53.4358 -53.4348 -53.4348 -53.4326 -53.4298 -53.4298 -53.4288
   -23.6988 -23.6988 -23.6732 -23.6645 -23.6645 -23.6607 -23.6607 -23.6584
   -23.6546 -23.6546 -23.6399 -23.6399 -23.6357 -23.6357 -23.6270 -23.6269
   -23.6262 -23.6262 -23.6190 -23.6174 -23.6174 -23.6121 -23.6121 -23.6115
   -23.5868 -23.5563 -23.5563 -23.5019 -23.4952 -23.4844 -23.4844 -23.4485
   -23.4417 -23.4417 -23.4327 -23.4261 -23.4261 -23.4101 -23.4101 -23.3896
   -23.3896 -23.3864 -23.3863 -23.3819 -23.3819 -23.3651 -23.3650 -23.3524
[...]
   -19.5406 -19.5406 -19.5406 -19.5406 -19.5245 -19.5245 -19.5245 -19.5245
   -19.4153 -19.4153 -19.4153 -19.4153 -19.3971 -19.3971 -19.3971 -19.3971
   -19.3949 -19.3949 -19.3949 -19.3949 -19.3524 -19.3524 -19.3524 -19.3524
    16.9460  16.9460  16.9460  16.9460  17.4180  17.4180  17.4180  17.4180
    17.8781  17.8781  17.8781  17.8781  17.9248  17.9248  17.9248  17.9249
    17.9249  17.9249  17.9249  17.9249  18.0057  18.0057  18.0058  18.0058
    18.1989  18.1990  18.1990  18.1990  18.1990  18.1990  18.1990  18.1990
    18.5946  18.5946  18.5946  18.5946  18.5946  18.5946  18.5946  18.5946
    18.7558  18.7558  18.7558  18.7558  19.3235  19.3235  19.3235  19.3235
    19.3235  19.3235  19.3235  19.3235  19.5041  19.5041  19.5041  19.5041
    20.0464  20.0464  20.0464  20.0464  20.5256  20.5256  20.5256  20.5256
    20.7796  20.7796  20.7796  20.7797  20.8584  20.8584  20.8584  20.8584
    20.8969  20.8969  20.8969  20.8969  20.8969  20.8969  20.8970  20.8970
    21.0200  21.0201  21.0201  21.0201  21.0455  21.0455  21.0455  21.0455
    21.0961  21.0962  21.0962  21.0962  21.3112  21.3112  21.3112  21.3112
    21.3112  21.3112  21.3112  21.3112  21.4515  21.4515  21.4515  21.4515
    21.7866  21.7866  21.7866  21.7866  21.9762  21.9762  21.9762  21.9762
    21.9762  21.9762  21.9762  21.9762  22.6051  22.6051  22.6051  22.6051
    22.8711  22.8711  22.8711  22.8711  22.9219  22.9219  22.9219  22.9219
    22.9219  22.9219  22.9219  22.9219  23.3101  23.3101  23.3101  23.3101
    23.3250  23.3250  23.3250  23.3250  23.7485  23.7486  23.7486  23.7486
    24.7528  24.7528  24.7528  24.7528  24.7528  24.7528  24.7528  24.7528
    24.7904  24.7904  24.7904  24.7904  24.8169  24.8169  24.8169  24.8169
    24.8169  24.8169  24.8169  24.8169  24.8662  24.8662  24.8662  24.8662
    26.4522  26.4522  26.4522  26.4522  27.7436  27.7436  27.7436  27.7436
    27.7437  27.7437  27.7437

          k = 0.4083 0.4083 0.4083 ( 30196 PWs)   bands (ev):

   -49.8543 -49.8320 -49.8320 -49.8320 -49.8130 -49.8130 -49.8130 -49.7972
   -49.7276 -49.7276 -49.7276 -49.7240 -49.7240 -49.7240 -49.7240 -49.7240
   -49.7240 -49.7239 -49.7239 -49.7239 -49.7083 -49.7083 -49.7083 -49.7052
   -49.7052 -49.7052 -49.7050 -49.7050 -49.7050 -49.7050 -49.7050 -49.7050
   -20.1866 -20.1866 -20.1866 -20.1501 -20.1501 -20.1501 -20.1396 -20.1396
   -20.1396 -20.1348 -20.1347 -20.1347 -20.1347 -20.1347 -20.1347 -20.1304
   -20.1304 -20.1304 -20.1304 -20.1304 -20.1304 -20.1037 -20.1037 -20.1037
   -19.9941 -19.8825 -19.8825 -19.8825 -19.7748 -19.7748 -19.7748 -19.7748
   -19.7748 -19.7748 -19.7689 -19.7689 -19.7689 -19.7665 -19.7665 -19.7665
   -19.7427 -19.7427 -19.7427 -19.6686 -19.6686 -19.6686 -19.6686 -19.6686
   -19.6686 -19.6511 -19.6511 -19.6511 -19.6504 -19.6387 -19.6387 -19.6387
   -19.6002 -19.6002 -19.6002 -19.5817 -19.5817 -19.5817 -19.5817 -19.5817
   -19.5817 -19.5638 -19.5638 -19.5638 -19.5477 -19.5477 -19.5477 -19.5430
   -19.5430 -19.5430 -19.5430 -19.5430 -19.5430 -19.5219 -19.5219 -19.5219
   -19.4205 -19.4205 -19.4205 -19.4015 -19.4015 -19.3922 -19.3922 -19.3922
   -19.3758 -19.3758 -19.3758 -19.3722 -19.3722 -19.3722 -19.3551 -19.3551
    16.6511  17.1097  17.1097  17.1097  17.3494  17.3591  17.3591  17.3591
    17.7173  17.7173  17.7173  17.9389  17.9389  17.9389  18.0183  18.0183
    18.0183  18.0316  18.0316  18.0316  18.0317  18.0317  18.0317  18.1204
    18.1204  18.1204  18.1204  18.1204  18.1204  18.1503  18.1503  18.1504
    18.4047  18.4047  18.4047  18.7769  18.7769  18.7770  18.8802  18.8802
    18.8802  18.8803  18.8803  18.8803  19.2354  19.2354  19.2355  19.2447
    19.2448  19.2448  19.2448  19.2448  19.2448  19.5467  19.5467  19.5467
    20.0684  20.0684  20.0684  20.1568  20.3428  20.3428  20.3428  20.7585
    20.7585  20.7585  20.7585  20.7585  20.7585  20.8607  20.8607  20.9549
    20.9549  20.9549  21.0035  21.0035  21.0035  21.0038  21.0038  21.0210
    21.0210  21.0211  21.0329  21.0329  21.0329  21.0359  21.0662  21.0662
    21.0662  21.1020  21.1020  21.1020  21.1020  21.1020  21.1020  21.1093
    21.1093  21.1093  21.2117  21.2117  21.2117  21.6318  21.6318  21.6318
    21.8368  21.8368  21.8368  22.1554  22.1554  22.1554  22.1555  22.1555
    22.1555  22.1569  22.1569  22.1569  22.4929  22.4930  22.4930  22.6804
    22.6804  22.6804  22.6804  22.6804  22.6804  22.7955  22.7955  22.7955
    22.8874  22.8874  22.9239  22.9239  22.9239  23.0776  23.0776  23.0776
    23.3572  23.3573  23.3573  23.5891  23.5891  23.7556  23.7556  23.7556
    24.7053  24.7053  24.7053  24.7587  24.7587  24.7587  24.7587  24.7587
    24.7587  24.8271  24.8271  24.8271  24.8271  24.8271  24.8271  24.8930
    24.8930  24.8930  24.9092  24.9092  24.9092  25.0027  25.0027  25.0027
    26.6676  26.6676  26.6676  27.5717  27.5718  27.5718  27.5718  27.5718
    27.5718  27.8513  27.8513

          k = 0.4083 0.4083-0.5250 ( 30162 PWs)   bands (ev):

   -49.8441 -49.8441 -49.8233 -49.8233 -49.8233 -49.8233 -49.8058 -49.8058
   -49.7260 -49.7260 -49.7260 -49.7260 -49.7240 -49.7240 -49.7240 -49.7239
   -49.7154 -49.7154 -49.7154 -49.7154 -49.7137 -49.7137 -49.7137 -49.7137
   -49.7065 -49.7065 -49.7065 -49.7065 -49.7051 -49.7051 -49.7051 -49.7051
   -20.1736 -20.1736 -20.1618 -20.1618 -20.1618 -20.1618 -20.1402 -20.1402
   -20.1402 -20.1402 -20.1368 -20.1368 -20.1368 -20.1368 -20.1350 -20.1350
   -20.1350 -20.1349 -20.1251 -20.1251 -20.1195 -20.1195 -20.1195 -20.1195
   -19.9386 -19.9386 -19.8253 -19.8253 -19.8253 -19.8253 -19.7728 -19.7728
   -19.7728 -19.7728 -19.7598 -19.7598 -19.7598 -19.7598 -19.7216 -19.7216
   -19.7216 -19.7216 -19.7084 -19.7084 -19.7014 -19.7014 -19.6991 -19.6991
   -19.6582 -19.6582 -19.6582 -19.6582 -19.6518 -19.6518 -19.6518 -19.6518
   -19.5899 -19.5899 -19.5899 -19.5899 -19.5836 -19.5836 -19.5643 -19.5643
   -19.5643 -19.5643 -19.5637 -19.5637 -19.5637 -19.5637 -19.5537 -19.5537
   -19.5537 -19.5537 -19.5359 -19.5359 -19.5332 -19.5332 -19.5332 -19.5332
   -19.4066 -19.4066 -19.4019 -19.4019 -19.4019 -19.4019 -19.3875 -19.3875
   -19.3725 -19.3725 -19.3725 -19.3725 -19.3721 -19.3721 -19.3591 -19.3591
    16.8646  16.8646  17.2248  17.2248  17.2248  17.2248  17.3420  17.3420
    17.8330  17.8331  17.8521  17.8521  17.8521  17.8521  18.0135  18.0135
    18.0135  18.0135  18.0580  18.0580  18.0580  18.0580  18.0757  18.0757
    18.0757  18.0757  18.0925  18.0925  18.0925  18.0925  18.1049  18.1049
    18.5685  18.5686  18.6435  18.6435  18.6435  18.6435  19.0229  19.0229
    19.0229  19.0229  19.0344  19.0344  19.0345  19.0345  19.0705  19.0705
    19.0705  19.0705  19.3616  19.3616  19.4162  19.4162  19.4162  19.4162
    20.1343  20.1344  20.2185  20.2185  20.2185  20.2185  20.6906  20.6906
    20.8988  20.8988  20.8988  20.8988  20.9219  20.9219  20.9228  20.9228
    20.9228  20.9228  20.9256  20.9256  20.9737  20.9737  20.9737  20.9738
    20.9881  20.9881  20.9881  20.9881  21.0243  21.0243  21.0253  21.0253
    21.0421  21.0421  21.0594  21.0594  21.0594  21.0594  21.0602  21.0602
    21.0602  21.0602  21.4783  21.4783  21.4783  21.4783  21.5279  21.5279
    21.8601  21.8601  21.8601  21.8601  21.8866  21.8866  22.2988  22.2988
    22.2988  22.2988  22.3924  22.3924  22.3924  22.3924  22.4220  22.4220
    22.4220  22.4220  22.7855  22.7855  22.7976  22.7976  22.8627  22.8627
    22.8627  22.8627  22.8907  22.8907  22.8908  22.8908  23.1094  23.1094
    23.2568  23.2568  23.4821  23.4821  23.4821  23.4822  23.6436  23.6436
    24.7937  24.7937  24.7937  24.7938  24.8254  24.8254  24.8254  24.8254
    24.8288  24.8288  24.8764  24.8764  24.8764  24.8764  24.8827  24.8827
    24.8827  24.8827  24.9350  24.9350  24.9350  24.9350  24.9838  24.9838
    27.0963  27.0963  27.0963  27.0963  27.5484  27.5484  27.6958  27.6958
    27.6958  27.6958  28.4836

          k = 0.4083-0.5250-0.5250 ( 30188 PWs)   bands (ev):

   -49.8346 -49.8346 -49.8346 -49.8346 -49.8153 -49.8153 -49.8153 -49.8153
   -49.7251 -49.7251 -49.7251 -49.7250 -49.7146 -49.7146 -49.7146 -49.7146
   -49.7146 -49.7146 -49.7146 -49.7146 -49.7145 -49.7145 -49.7145 -49.7145
   -49.7145 -49.7145 -49.7145 -49.7145 -49.7057 -49.7057 -49.7057 -49.7057
   -20.1559 -20.1559 -20.1559 -20.1559 -20.1559 -20.1559 -20.1559 -20.1559
   -20.1412 -20.1412 -20.1412 -20.1412 -20.1373 -20.1373 -20.1373 -20.1373
   -20.1310 -20.1310 -20.1310 -20.1310 -20.1310 -20.1310 -20.1310 -20.1310
   -19.8820 -19.8820 -19.8820 -19.8820 -19.7683 -19.7683 -19.7682 -19.7682
   -19.7660 -19.7660 -19.7660 -19.7660 -19.7117 -19.7117 -19.7117 -19.7117
   -19.7117 -19.7117 -19.7117 -19.7117 -19.7103 -19.7103 -19.7103 -19.7103
   -19.7103 -19.7103 -19.7103 -19.7102 -19.6533 -19.6533 -19.6533 -19.6533
   -19.5756 -19.5756 -19.5756 -19.5756 -19.5736 -19.5736 -19.5736 -19.5736
   -19.5736 -19.5735 -19.5735 -19.5735 -19.5499 -19.5499 -19.5499 -19.5499
   -19.5499 -19.5499 -19.5499 -19.5499 -19.5440 -19.5440 -19.5440 -19.5440
   -19.3957 -19.3957 -19.3957 -19.3957 -19.3830 -19.3830 -19.3830 -19.3830
   -19.3829 -19.3829 -19.3829 -19.3829 -19.3638 -19.3638 -19.3638 -19.3638
    17.0325  17.0325  17.0325  17.0326  17.2736  17.2736  17.2736  17.2736
    17.9426  17.9426  17.9426  17.9426  17.9426  17.9426  17.9426  17.9427
    17.9436  17.9436  17.9436  17.9436  18.0224  18.0224  18.0224  18.0224
    18.0867  18.0867  18.0867  18.0867  18.0867  18.0867  18.0867  18.0867
    18.8082  18.8082  18.8082  18.8082  18.8082  18.8082  18.8082  18.8083
    18.8661  18.8661  18.8661  18.8662  19.2149  19.2149  19.2149  19.2149
    19.2149  19.2149  19.2150  19.2150  19.2422  19.2422  19.2422  19.2422
    20.1960  20.1960  20.1960  20.1960  20.4686  20.4686  20.4686  20.4686
    20.9255  20.9255  20.9255  20.9255  20.9473  20.9473  20.9473  20.9473
    20.9699  20.9699  20.9699  20.9699  20.9699  20.9699  20.9699  20.9699
    20.9858  20.9858  20.9858  20.9858  21.0204  21.0204  21.0204  21.0204
    21.0302  21.0303  21.0303  21.0303  21.2249  21.2249  21.2249  21.2249
    21.2249  21.2249  21.2249  21.2249  21.2835  21.2835  21.2835  21.2835
    22.0409  22.0409  22.0409  22.0409  22.1218  22.1219  22.1219  22.1219
    22.1219  22.1219  22.1219  22.1219  22.5813  22.5813  22.5813  22.5813
    22.5813  22.5813  22.5813  22.5813  22.5977  22.5977  22.5977  22.5977
    22.8613  22.8613  22.8613  22.8613  23.1512  23.1512  23.1512  23.1512
    23.2256  23.2256  23.2257  23.2257  23.4470  23.4470  23.4470  23.4470
    24.8694  24.8694  24.8694  24.8694  24.8694  24.8694  24.8694  24.8694
    24.8910  24.8910  24.8910  24.8910  24.9366  24.9366  24.9366  24.9366
    24.9366  24.9366  24.9366  24.9366  24.9377  24.9377  24.9377  24.9377
    27.3657  27.3657  27.3657  27.3657  28.0043  28.0043  28.0043  28.0043
    28.0043  28.0043  28.0043

          k =-0.5250-0.5250-0.5250 ( 30280 PWs)   bands (ev):

   -49.8258 -49.8258 -49.8258 -49.8258 -49.8258 -49.8258 -49.8258 -49.8258
   -49.7146 -49.7146 -49.7146 -49.7146 -49.7146 -49.7146 -49.7146 -49.7146
   -49.7146 -49.7146 -49.7146 -49.7146 -49.7146 -49.7146 -49.7146 -49.7146
   -49.7146 -49.7146 -49.7146 -49.7146 -49.7146 -49.7146 -49.7146 -49.7145
   -20.1437 -20.1437 -20.1437 -20.1436 -20.1436 -20.1436 -20.1436 -20.1436
   -20.1436 -20.1436 -20.1436 -20.1436 -20.1436 -20.1436 -20.1436 -20.1436
   -20.1436 -20.1436 -20.1436 -20.1436 -20.1436 -20.1436 -20.1436 -20.1436
   -19.8236 -19.8236 -19.8236 -19.8236 -19.8236 -19.8236 -19.8236 -19.8236
   -19.7114 -19.7114 -19.7114 -19.7114 -19.7114 -19.7114 -19.7114 -19.7114
   -19.7114 -19.7114 -19.7114 -19.7114 -19.7114 -19.7114 -19.7114 -19.7114
   -19.7114 -19.7114 -19.7114 -19.7114 -19.7114 -19.7114 -19.7114 -19.7113
   -19.5613 -19.5613 -19.5613 -19.5613 -19.5613 -19.5613 -19.5613 -19.5613
   -19.5613 -19.5613 -19.5613 -19.5613 -19.5613 -19.5613 -19.5613 -19.5613
   -19.5613 -19.5613 -19.5613 -19.5613 -19.5613 -19.5613 -19.5613 -19.5613
   -19.3784 -19.3784 -19.3784 -19.3784 -19.3784 -19.3784 -19.3784 -19.3784
   -19.3784 -19.3784 -19.3784 -19.3784 -19.3784 -19.3784 -19.3784 -19.3784
    17.1432  17.1432  17.1432  17.1432  17.1432  17.1432  17.1432  17.1432
    17.9978  17.9978  17.9978  17.9979  17.9979  17.9979  17.9979  17.9979
    17.9979  17.9979  17.9979  17.9979  17.9979  17.9979  17.9979  17.9979
    17.9979  17.9979  17.9979  17.9979  17.9979  17.9979  17.9979  17.9979
    19.0273  19.0273  19.0273  19.0274  19.0274  19.0274  19.0274  19.0274
    19.0274  19.0274  19.0274  19.0274  19.0274  19.0274  19.0274  19.0274
    19.0274  19.0274  19.0274  19.0274  19.0274  19.0274  19.0274  19.0274
    20.3506  20.3506  20.3506  20.3506  20.3506  20.3506  20.3506  20.3506
    20.9906  20.9906  20.9906  20.9906  20.9906  20.9906  20.9906  20.9906
    20.9906  20.9906  20.9907  20.9907  20.9907  20.9907  20.9907  20.9907
    21.1002  21.1002  21.1002  21.1002  21.1002  21.1002  21.1002  21.1002
    21.1002  21.1002  21.1002  21.1002  21.1002  21.1002  21.1002  21.1002
    21.1002  21.1002  21.1002  21.1002  21.1002  21.1002  21.1002  21.1002
    22.3150  22.3151  22.3151  22.3151  22.3151  22.3151  22.3151  22.3151
    22.3151  22.3151  22.3151  22.3151  22.3151  22.3151  22.3151  22.3151
    22.3151  22.3151  22.3151  22.3151  22.3151  22.3151  22.3151  22.3151
    23.1470  23.1470  23.1470  23.1470  23.1470  23.1470  23.1470  23.1470
    23.1470  23.1470  23.1470  23.1471  23.1471  23.1471  23.1471  23.1471
    24.9446  24.9446  24.9446  24.9446  24.9446  24.9446  24.9446  24.9446
    24.9446  24.9446  24.9446  24.9446  24.9446  24.9446  24.9446  24.9446
    24.9446  24.9446  24.9446  24.9446  24.9446  24.9446  24.9446  24.9446
    28.3250  28.3250  28.3251  28.3251  28.3251  28.3251  28.3251  28.3251
    28.3251  28.3251  28.3251

     the Fermi energy is    23.1143 ev

!    total energy              =  -13813.30088106 Ry

     total all-electron energy =   -289989.691220 Ry
     estimated scf accuracy    <          9.0E-09 Ry
     smearing contrib. (-TS)   =       0.02043216 Ry
     internal energy E=F+TS    =  -13813.32131321 Ry

     The total energy is F=E-TS. E is the sum of the following terms:
     one-electron contribution =    -995.54675208 Ry
     hartree contribution      =     916.01675392 Ry
     xc contribution           =    -928.06568833 Ry
     ewald contribution        =   -5216.28336573 Ry
     one-center paw contrib.   =   -7589.44226099 Ry

     convergence has been achieved in  14 iterations

     Forces acting on atoms (cartesian axes, Ry/au):

     atom    1 type  1   force =     0.00000000    0.00000000    0.00000000
     atom    2 type  1   force =     0.00002244    0.00002244   -0.00000000
     atom    3 type  1   force =     0.00002244    0.00000000    0.00002244
     atom    4 type  1   force =     0.00000000    0.00002244    0.00002244
     atom    5 type  1   force =     0.00000000    0.00000000    0.00000000
     atom    6 type  1   force =    -0.00001659   -0.00001659    0.00000000
     atom    7 type  1   force =     0.00002244   -0.00000000   -0.00002244
     atom    8 type  1   force =     0.00000000    0.00002244   -0.00002244
     atom    9 type  1   force =     0.00000000    0.00000000    0.00000000
     atom   10 type  1   force =     0.00002244   -0.00002244    0.00000000
     atom   11 type  1   force =    -0.00001659   -0.00000000   -0.00001659
     atom   12 type  1   force =     0.00000000   -0.00002244    0.00002244
     atom   13 type  1   force =     0.00000000    0.00000000    0.00000000
     atom   14 type  1   force =    -0.00001659    0.00001659   -0.00000000
     atom   15 type  1   force =    -0.00001659    0.00000000    0.00001659
     atom   16 type  1   force =     0.00000000   -0.00002244   -0.00002244
     atom   17 type  1   force =     0.00000000    0.00000000    0.00000000
     atom   18 type  1   force =    -0.00002244    0.00002244    0.00000000
     atom   19 type  1   force =    -0.00002244   -0.00000000    0.00002244
     atom   20 type  1   force =     0.00000000   -0.00001659   -0.00001659
     atom   21 type  1   force =     0.00000000    0.00000000    0.00000000
     atom   22 type  1   force =     0.00001659   -0.00001659   -0.00000000
     atom   23 type  1   force =    -0.00002244    0.00000000   -0.00002244
     atom   24 type  1   force =    -0.00000000   -0.00001659    0.00001659
     atom   25 type  1   force =     0.00000000    0.00000000    0.00000000
     atom   26 type  1   force =    -0.00002244   -0.00002244   -0.00000000
     atom   27 type  1   force =     0.00001659    0.00000000   -0.00001659
     atom   28 type  1   force =    -0.00000000    0.00001659   -0.00001659
     atom   29 type  1   force =     0.00000000    0.00000000    0.00000000
     atom   30 type  1   force =     0.00001659    0.00001659    0.00000000
     atom   31 type  1   force =     0.00001659    0.00000000    0.00001659
     atom   32 type  1   force =    -0.00000000    0.00001659    0.00001659

     Total force =     0.000137     Total SCF correction =     0.000643
     SCF correction compared to forces is large: reduce conv_thr to get better values


     Computing stress (Cartesian axis) and pressure

          total   stress  (Ry/bohr**3)                   (kbar)     P=       -4.35
  -0.00002954   0.00000000   0.00000000           -4.35        0.00        0.00
   0.00000000  -0.00002954   0.00000000            0.00       -4.35        0.00
   0.00000000   0.00000000  -0.00002954            0.00        0.00       -4.35


     Writing output data file /scratch/nJIRuCfzmRzJodUc.save/
 
     init_run     :     26.12s CPU     26.98s WALL (       2 calls)
     electrons    :   5027.79s CPU   5096.76s WALL (       8 calls)
     update_pot   :      3.24s CPU      3.31s WALL (       6 calls)
     forces       :     48.61s CPU     49.08s WALL (       8 calls)
     stress       :    314.16s CPU    316.52s WALL (       8 calls)

     Called by init_run:
     wfcinit      :     24.68s CPU     25.21s WALL (       2 calls)
     potinit      :      0.43s CPU      0.66s WALL (       2 calls)
     hinit0       :      0.43s CPU      0.44s WALL (       2 calls)

     Called by electrons:
     c_bands      :   4499.19s CPU   4556.56s WALL (     115 calls)
     sum_band     :    512.47s CPU    521.46s WALL (     115 calls)
     v_of_rho     :      2.09s CPU      2.19s WALL (     119 calls)
     newd         :      3.18s CPU      4.55s WALL (     119 calls)
     PAW_pot      :     10.72s CPU     11.37s WALL (     125 calls)
     mix_rho      :      0.66s CPU      0.77s WALL (     115 calls)

     Called by c_bands:
     init_us_2    :     17.56s CPU     17.87s WALL (    8890 calls)
     cegterg      :   4427.83s CPU   4483.47s WALL (    4025 calls)

     Called by *egterg:
     cdiaghg      :    478.40s CPU    483.18s WALL (   15392 calls)
     h_psi        :   2393.10s CPU   2429.40s WALL (   15812 calls)
     s_psi        :    174.52s CPU    175.76s WALL (   15812 calls)
     g_psi        :      5.50s CPU      5.58s WALL (   11717 calls)

     Called by h_psi:
     h_psi:calbec :    326.07s CPU    328.43s WALL (   15812 calls)
     vloc_psi     :   1882.15s CPU   1912.31s WALL (   15812 calls)
     add_vuspsi   :    172.67s CPU    176.31s WALL (   15812 calls)

     General routines
     calbec       :    582.03s CPU    586.14s WALL (   21447 calls)
     fft          :      3.07s CPU      3.29s WALL (    1741 calls)
     ffts         :      0.19s CPU      0.41s WALL (     234 calls)
     fftw         :   2177.00s CPU   2211.73s WALL ( 7983125 calls)
     interpolate  :      0.63s CPU      0.95s WALL (     119 calls)
 
     Parallel routines
     fft_scatt_xy :    147.54s CPU    149.72s WALL ( 7985100 calls)
     fft_scatt_yz :   1598.37s CPU   1625.15s WALL ( 7985100 calls)
 
     PWSCF        :      1h30m CPU      1h31m WALL

 
   This run was terminated on:  11:43:53  23Nov2021            

=------------------------------------------------------------------------------=
   JOB DONE.
=------------------------------------------------------------------------------=
