
     Program PWSCF v.6.7MaX starts on 10Mar2022 at  5:26:24 

     This program is part of the open-source Quantum ESPRESSO suite
     for quantum simulation of materials; please cite
         "P. Giannozzi et al., J. Phys.:Condens. Matter 21 395502 (2009);
         "P. Giannozzi et al., J. Phys.:Condens. Matter 29 465901 (2017);
          URL http://www.quantum-espresso.org", 
     in publications or presentations arising from this work. More details at
     http://www.quantum-espresso.org/quote

     Parallel version (MPI & OpenMP), running on      72 processor cores
     Number of MPI processes:                72
     Threads/MPI process:                     1

     MPI processes distributed on     1 nodes
     R & G space division:  proc/nbgrp/npool/nimage =      72
     Reading input from feru_1b.in

     Current dimensions of program PWSCF are:
     Max number of different atomic species (ntypx) = 10
     Max number of k-points (npk) =  40000
     Max angular momentum in pseudopotentials (lmaxx) =  3
     file Ru.pbe-spn-kjpaw_psl.1.0.0.UPF: wavefunction(s)  4D renormalized
     file Fe.pbe-spn-kjpaw_psl.1.0.0.UPF: wavefunction(s)  3P 3D renormalized
     file Fe.pbe-spn-kjpaw_psl.1.0.0.UPF: wavefunction(s)  3P 3D renormalized
     file Fe.pbe-spn-kjpaw_psl.1.0.0.UPF: wavefunction(s)  3P 3D renormalized
     file Fe.pbe-spn-kjpaw_psl.1.0.0.UPF: wavefunction(s)  3P 3D renormalized

     Subspace diagonalization in iterative solution of the eigenvalue problem:
     one sub-group per band group will be used
     ELPA distributed-memory algorithm (size of sub-group:  8*  8 procs)

     Message from routine setup:
     using ibrav=0 with symmetry is DISCOURAGED, use correct ibrav instead
 
     Parallelization info
     --------------------
     sticks:   dense  smooth     PW     G-vecs:    dense   smooth      PW
     Min          84      55     15                 4834     2593     373
     Max          85      56     16                 4839     2600     378
     Sum        6087    4017   1115               348163   187025   27031
 


     bravais-lattice index     =            0
     lattice parameter (alat)  =      12.9999  a.u.
     unit-cell volume          =    2313.3400 (a.u.)^3
     number of atoms/cell      =           32
     number of atomic types    =            5
     number of electrons       =       512.00
     number of Kohn-Sham states=          307
     kinetic-energy cutoff     =      71.0000  Ry
     charge density cutoff     =     430.0000  Ry
     scf convergence threshold =      1.0E-08
     mixing beta               =       0.3000
     number of iterations used =           10  local-TF  mixing
     energy convergence thresh.=      1.0E-04
     force convergence thresh. =      1.0E-03
     press convergence thresh. =      5.0E-01
     Exchange-correlation= SLA  PW   PBX  PBC
                           (   1   4   3   4   0   0   0)
     nstep                     =           40


     celldm(1)=  12.999899  celldm(2)=   0.000000  celldm(3)=   0.000000
     celldm(4)=   0.000000  celldm(5)=   0.000000  celldm(6)=   0.000000

     crystal axes: (cart. coord. in units of alat)
               a(1) = (   1.000000   0.000000   0.000000 )  
               a(2) = (   0.000000   1.052979   0.000000 )  
               a(3) = (   0.000000   0.000000   1.000000 )  

     reciprocal axes: (cart. coord. in units 2 pi/alat)
               b(1) = (  1.000000  0.000000  0.000000 )  
               b(2) = (  0.000000  0.949687  0.000000 )  
               b(3) = (  0.000000  0.000000  1.000000 )  


     PseudoPot. # 1 for Ru read from file:
     /rds/homes/b/bxp912/pp/Ru.pbe-spn-kjpaw_psl.1.0.0.UPF
     MD5 check sum: 0ae1f594dea09af7be8575c3a481d1ae
     Pseudo is Projector augmented-wave + core cor, Zval = 16.0
     Generated using "atomic" code by A. Dal Corso  v.5.1
     Shape of augmentation charge: PSQ
     Using radial grid of 1233 points,  6 beta functions with: 
                l(1) =   0
                l(2) =   0
                l(3) =   1
                l(4) =   1
                l(5) =   2
                l(6) =   2
     Q(r) pseudized with 0 coefficients 


     PseudoPot. # 2 for Fe read from file:
     /rds/homes/b/bxp912/pp/Fe.pbe-spn-kjpaw_psl.1.0.0.UPF
     MD5 check sum: 42f43b795421b414b0dc916aa790dbcb
     Pseudo is Projector augmented-wave + core cor, Zval = 16.0
     Generated using &quot;atomic&quot; code by A. Dal Corso  v.6.3
     Shape of augmentation charge: PSQ
     Using radial grid of 1191 points,  6 beta functions with: 
                l(1) =   0
                l(2) =   0
                l(3) =   1
                l(4) =   1
                l(5) =   2
                l(6) =   2
     Q(r) pseudized with 0 coefficients 


     PseudoPot. # 3 for Fe read from file:
     /rds/homes/b/bxp912/pp/Fe.pbe-spn-kjpaw_psl.1.0.0.UPF
     MD5 check sum: 42f43b795421b414b0dc916aa790dbcb
     Pseudo is Projector augmented-wave + core cor, Zval = 16.0
     Generated using &quot;atomic&quot; code by A. Dal Corso  v.6.3
     Shape of augmentation charge: PSQ
     Using radial grid of 1191 points,  6 beta functions with: 
                l(1) =   0
                l(2) =   0
                l(3) =   1
                l(4) =   1
                l(5) =   2
                l(6) =   2
     Q(r) pseudized with 0 coefficients 


     PseudoPot. # 4 for Fe read from file:
     /rds/homes/b/bxp912/pp/Fe.pbe-spn-kjpaw_psl.1.0.0.UPF
     MD5 check sum: 42f43b795421b414b0dc916aa790dbcb
     Pseudo is Projector augmented-wave + core cor, Zval = 16.0
     Generated using &quot;atomic&quot; code by A. Dal Corso  v.6.3
     Shape of augmentation charge: PSQ
     Using radial grid of 1191 points,  6 beta functions with: 
                l(1) =   0
                l(2) =   0
                l(3) =   1
                l(4) =   1
                l(5) =   2
                l(6) =   2
     Q(r) pseudized with 0 coefficients 


     PseudoPot. # 5 for Fe read from file:
     /rds/homes/b/bxp912/pp/Fe.pbe-spn-kjpaw_psl.1.0.0.UPF
     MD5 check sum: 42f43b795421b414b0dc916aa790dbcb
     Pseudo is Projector augmented-wave + core cor, Zval = 16.0
     Generated using &quot;atomic&quot; code by A. Dal Corso  v.6.3
     Shape of augmentation charge: PSQ
     Using radial grid of 1191 points,  6 beta functions with: 
                l(1) =   0
                l(2) =   0
                l(3) =   1
                l(4) =   1
                l(5) =   2
                l(6) =   2
     Q(r) pseudized with 0 coefficients 


     atomic species   valence    mass     pseudopotential
        Ru            16.00   101.07000     Ru( 1.00)
        Fe1           16.00    55.84500     Fe( 1.00)
        Fe2           16.00    55.84500     Fe( 1.00)
        Fe3           16.00    55.84500     Fe( 1.00)
        Fe4           16.00    55.84500     Fe( 1.00)

     Starting magnetic structure 
     atomic species   magnetization
        Ru          -0.080
        Fe1          1.000
        Fe2         -1.000
        Fe3          1.000
        Fe4         -1.000

      8 Sym. Ops., with inversion, found



   Cartesian axes

     site n.     atom                  positions (alat units)
         1           Ru  tau(   1) = (   0.0000000   0.0000000   0.0000000  )
         2           Fe2 tau(   2) = (   0.2523704   0.2660492   0.0000000  )
         3           Fe3 tau(   3) = (   0.2548849   0.0000000   0.2548842  )
         4           Fe4 tau(   4) = (   0.0000000   0.2660494   0.2523716  )
         5           Fe1 tau(   5) = (   0.0000000   0.0000000   0.5000000  )
         6           Fe2 tau(   6) = (   0.2504047   0.2639964   0.5000000  )
         7           Fe3 tau(   7) = (   0.2548849   0.0000000   0.7451148  )
         8           Fe4 tau(   8) = (   0.0000000   0.2660494   0.7476274  )
         9           Fe1 tau(   9) = (   0.0000000   0.5264894   0.0000000  )
        10           Fe2 tau(  10) = (   0.2523704   0.7869297   0.0000000  )
        11           Fe3 tau(  11) = (   0.2504147   0.5264894   0.2504153  )
        12           Fe4 tau(  12) = (   0.0000000   0.7869296   0.2523716  )
        13           Fe1 tau(  13) = (   0.0000000   0.5264894   0.5000000  )
        14           Fe2 tau(  14) = (   0.2504047   0.7889825   0.5000000  )
        15           Fe3 tau(  15) = (   0.2504147   0.5264894   0.7495847  )
        16           Fe4 tau(  16) = (   0.0000000   0.7869296   0.7476274  )
        17           Fe1 tau(  17) = (   0.4999998   0.0000000   0.0000000  )
        18           Fe2 tau(  18) = (   0.7476291   0.2660492   0.0000000  )
        19           Fe3 tau(  19) = (   0.7451147   0.0000000   0.2548842  )
        20           Fe4 tau(  20) = (   0.4999998   0.2639967   0.2504032  )
        21           Fe1 tau(  21) = (   0.4999998   0.0000000   0.5000000  )
        22           Fe2 tau(  22) = (   0.7495948   0.2639964   0.5000000  )
        23           Fe3 tau(  23) = (   0.7451147   0.0000000   0.7451148  )
        24           Fe4 tau(  24) = (   0.4999998   0.2639967   0.7495958  )
        25           Fe1 tau(  25) = (   0.4999998   0.5264894   0.0000000  )
        26           Fe2 tau(  26) = (   0.7476291   0.7869297   0.0000000  )
        27           Fe3 tau(  27) = (   0.7495849   0.5264894   0.2504153  )
        28           Fe4 tau(  28) = (   0.4999998   0.7889822   0.2504032  )
        29           Fe1 tau(  29) = (   0.4999998   0.5264894   0.5000000  )
        30           Fe2 tau(  30) = (   0.7495948   0.7889825   0.5000000  )
        31           Fe3 tau(  31) = (   0.7495849   0.5264894   0.7495847  )
        32           Fe4 tau(  32) = (   0.4999998   0.7889822   0.7495958  )

     number of k points=   125  Marzari-Vanderbilt smearing, width (Ry)=  0.0400

     Number of k-points >= 100: set verbosity='high' to print them.

     Dense  grid:   348163 G-vectors     FFT dimensions: (  90,  96,  90)

     Smooth grid:   187025 G-vectors     FFT dimensions: (  72,  75,  72)

     Estimated max dynamical RAM per process >     422.43 MB

     Estimated total dynamical RAM >      29.70 GB

     Check: negative core charge=   -0.000006
     Generating pointlists ...
     new r_m :   0.1487 (alat units)  1.9330 (a.u.) for type    1
     new r_m :   0.1430 (alat units)  1.8589 (a.u.) for type    2
     new r_m :   0.1453 (alat units)  1.8885 (a.u.) for type    3
     new r_m :   0.1430 (alat units)  1.8589 (a.u.) for type    4
     new r_m :   0.1453 (alat units)  1.8885 (a.u.) for type    5

     Initial potential from superposition of free atoms

     starting charge  511.98580, renormalised to  512.00000
     Starting wfcs are  320 randomized atomic wfcs
     Checking if some PAW data can be deallocated... 

     total cpu time spent up to now is       63.2 secs

     Self-consistent Calculation

     iteration #  1     ecut=    71.00 Ry     beta= 0.30
     Davidson diagonalization with overlap
     ethr =  1.00E-02,  avg # of iterations =  6.2

     negative rho (up, down):  2.658E+00 1.935E-01

     total cpu time spent up to now is      338.3 secs

     total energy              =  -10575.29240492 Ry
     estimated scf accuracy    <     276.09340799 Ry

     total magnetization       =    -2.08 Bohr mag/cell
     absolute magnetization    =   167.63 Bohr mag/cell

     iteration #  2     ecut=    71.00 Ry     beta= 0.30
     Davidson diagonalization with overlap
     ethr =  1.00E-02,  avg # of iterations =  3.2

     negative rho (up, down):  1.625E+00 1.151E-01

     total cpu time spent up to now is      523.7 secs

     total energy              =  -10607.36338097 Ry
     estimated scf accuracy    <      73.10254566 Ry

     total magnetization       =    -4.86 Bohr mag/cell
     absolute magnetization    =   138.08 Bohr mag/cell

     iteration #  3     ecut=    71.00 Ry     beta= 0.30
     Davidson diagonalization with overlap
     ethr =  1.00E-02,  avg # of iterations =  2.0

     negative rho (up, down):  5.735E-02 2.114E-02

     total cpu time spent up to now is      692.2 secs

     total energy              =  -10630.92854986 Ry
     estimated scf accuracy    <      42.73445711 Ry

     total magnetization       =    -4.51 Bohr mag/cell
     absolute magnetization    =   127.58 Bohr mag/cell

     iteration #  4     ecut=    71.00 Ry     beta= 0.30
     Davidson diagonalization with overlap
     ethr =  8.35E-03,  avg # of iterations =  3.6

     negative rho (up, down):  1.065E-02 1.150E-02

     total cpu time spent up to now is      879.5 secs

     total energy              =  -10636.75766248 Ry
     estimated scf accuracy    <       6.03211147 Ry

     total magnetization       =    -1.78 Bohr mag/cell
     absolute magnetization    =    92.35 Bohr mag/cell

     iteration #  5     ecut=    71.00 Ry     beta= 0.30
     Davidson diagonalization with overlap
     ethr =  1.18E-03,  avg # of iterations =  7.2

     negative rho (up, down):  1.816E-02 5.223E-03

     total cpu time spent up to now is     1109.9 secs

     total energy              =  -10637.95897021 Ry
     estimated scf accuracy    <       1.80341395 Ry

     total magnetization       =    -2.04 Bohr mag/cell
     absolute magnetization    =    80.79 Bohr mag/cell

     iteration #  6     ecut=    71.00 Ry     beta= 0.30
     Davidson diagonalization with overlap
     ethr =  3.52E-04,  avg # of iterations =  3.4

     negative rho (up, down):  1.556E-02 4.162E-03

     total cpu time spent up to now is     1302.4 secs

     total energy              =  -10638.44934104 Ry
     estimated scf accuracy    <       0.58993637 Ry

     total magnetization       =    -1.85 Bohr mag/cell
     absolute magnetization    =    64.65 Bohr mag/cell

     iteration #  7     ecut=    71.00 Ry     beta= 0.30
     Davidson diagonalization with overlap
     ethr =  1.15E-04,  avg # of iterations =  4.1

     negative rho (up, down):  9.796E-03 3.134E-03

     total cpu time spent up to now is     1484.3 secs

     total energy              =  -10638.53932996 Ry
     estimated scf accuracy    <       0.31919012 Ry

     total magnetization       =    -1.24 Bohr mag/cell
     absolute magnetization    =    61.05 Bohr mag/cell

     iteration #  8     ecut=    71.00 Ry     beta= 0.30
     Davidson diagonalization with overlap
     ethr =  6.23E-05,  avg # of iterations =  4.7

     negative rho (up, down):  2.331E-03 1.090E-03

     total cpu time spent up to now is     1671.4 secs

     total energy              =  -10638.56868616 Ry
     estimated scf accuracy    <       0.20590013 Ry

     total magnetization       =    -1.04 Bohr mag/cell
     absolute magnetization    =    57.30 Bohr mag/cell

     iteration #  9     ecut=    71.00 Ry     beta= 0.30
     Davidson diagonalization with overlap
     ethr =  4.02E-05,  avg # of iterations =  5.4

     negative rho (up, down):  1.201E-03 6.161E-04

     total cpu time spent up to now is     1873.3 secs

     total energy              =  -10638.63115506 Ry
     estimated scf accuracy    <       0.13051963 Ry

     total magnetization       =    -0.95 Bohr mag/cell
     absolute magnetization    =    50.88 Bohr mag/cell

     iteration # 10     ecut=    71.00 Ry     beta= 0.30
     Davidson diagonalization with overlap
     ethr =  2.55E-05,  avg # of iterations =  1.6

     total cpu time spent up to now is     2030.5 secs

     total energy              =  -10638.64268252 Ry
     estimated scf accuracy    <       0.04193986 Ry

     total magnetization       =    -0.78 Bohr mag/cell
     absolute magnetization    =    50.33 Bohr mag/cell

     iteration # 11     ecut=    71.00 Ry     beta= 0.30
     Davidson diagonalization with overlap
     ethr =  8.19E-06,  avg # of iterations =  4.3

     total cpu time spent up to now is     2215.9 secs

     total energy              =  -10638.64643372 Ry
     estimated scf accuracy    <       0.06421844 Ry

     total magnetization       =    -0.62 Bohr mag/cell
     absolute magnetization    =    50.47 Bohr mag/cell

     iteration # 12     ecut=    71.00 Ry     beta= 0.30
     Davidson diagonalization with overlap
     ethr =  8.19E-06,  avg # of iterations =  1.1

     total cpu time spent up to now is     2367.1 secs

     total energy              =  -10638.64817200 Ry
     estimated scf accuracy    <       0.00598614 Ry

     total magnetization       =    -0.66 Bohr mag/cell
     absolute magnetization    =    49.98 Bohr mag/cell

     iteration # 13     ecut=    71.00 Ry     beta= 0.30
     Davidson diagonalization with overlap
     c_bands:  2 eigenvalues not converged
     c_bands:  2 eigenvalues not converged
     c_bands:  1 eigenvalues not converged
     ethr =  1.17E-06,  avg # of iterations =  5.7

     total cpu time spent up to now is     2555.7 secs

     total energy              =  -10638.64869489 Ry
     estimated scf accuracy    <       0.00090856 Ry

     total magnetization       =    -0.64 Bohr mag/cell
     absolute magnetization    =    49.77 Bohr mag/cell

     iteration # 14     ecut=    71.00 Ry     beta= 0.30
     Davidson diagonalization with overlap
     ethr =  1.77E-07,  avg # of iterations =  5.1

     total cpu time spent up to now is     2765.9 secs

     total energy              =  -10638.64897479 Ry
     estimated scf accuracy    <       0.00040844 Ry

     total magnetization       =    -0.62 Bohr mag/cell
     absolute magnetization    =    49.67 Bohr mag/cell

     iteration # 15     ecut=    71.00 Ry     beta= 0.30
     Davidson diagonalization with overlap
     ethr =  7.98E-08,  avg # of iterations =  3.1

     total cpu time spent up to now is     2941.9 secs

     total energy              =  -10638.64905422 Ry
     estimated scf accuracy    <       0.00033394 Ry

     total magnetization       =    -0.60 Bohr mag/cell
     absolute magnetization    =    49.49 Bohr mag/cell

     iteration # 16     ecut=    71.00 Ry     beta= 0.30
     Davidson diagonalization with overlap
     ethr =  6.52E-08,  avg # of iterations =  2.1

     total cpu time spent up to now is     3110.7 secs

     total energy              =  -10638.64911098 Ry
     estimated scf accuracy    <       0.00010874 Ry

     total magnetization       =    -0.58 Bohr mag/cell
     absolute magnetization    =    49.40 Bohr mag/cell

     iteration # 17     ecut=    71.00 Ry     beta= 0.30
     Davidson diagonalization with overlap
     ethr =  2.12E-08,  avg # of iterations =  5.1

     total cpu time spent up to now is     3333.3 secs

     total energy              =  -10638.64918034 Ry
     estimated scf accuracy    <       0.00005888 Ry

     total magnetization       =    -0.55 Bohr mag/cell
     absolute magnetization    =    49.24 Bohr mag/cell

     iteration # 18     ecut=    71.00 Ry     beta= 0.30
     Davidson diagonalization with overlap
     ethr =  1.15E-08,  avg # of iterations =  1.9

     total cpu time spent up to now is     3498.1 secs

     total energy              =  -10638.64919828 Ry
     estimated scf accuracy    <       0.00004022 Ry

     total magnetization       =    -0.54 Bohr mag/cell
     absolute magnetization    =    49.20 Bohr mag/cell

     iteration # 19     ecut=    71.00 Ry     beta= 0.30
     Davidson diagonalization with overlap
     ethr =  7.86E-09,  avg # of iterations =  2.0

     total cpu time spent up to now is     3666.3 secs

     total energy              =  -10638.64921439 Ry
     estimated scf accuracy    <       0.00003211 Ry

     total magnetization       =    -0.53 Bohr mag/cell
     absolute magnetization    =    49.19 Bohr mag/cell

     iteration # 20     ecut=    71.00 Ry     beta= 0.30
     Davidson diagonalization with overlap
     ethr =  6.27E-09,  avg # of iterations =  3.1

     total cpu time spent up to now is     3852.8 secs

     total energy              =  -10638.64923423 Ry
     estimated scf accuracy    <       0.00001844 Ry

     total magnetization       =    -0.51 Bohr mag/cell
     absolute magnetization    =    49.18 Bohr mag/cell

     iteration # 21     ecut=    71.00 Ry     beta= 0.30
     Davidson diagonalization with overlap
     ethr =  3.60E-09,  avg # of iterations =  4.1

     total cpu time spent up to now is     4051.0 secs

     total energy              =  -10638.64924892 Ry
     estimated scf accuracy    <       0.00001364 Ry

     total magnetization       =    -0.50 Bohr mag/cell
     absolute magnetization    =    49.17 Bohr mag/cell

     iteration # 22     ecut=    71.00 Ry     beta= 0.30
     Davidson diagonalization with overlap
     ethr =  2.66E-09,  avg # of iterations =  2.3

     total cpu time spent up to now is     4222.4 secs

     total energy              =  -10638.64925292 Ry
     estimated scf accuracy    <       0.00001753 Ry

     total magnetization       =    -0.50 Bohr mag/cell
     absolute magnetization    =    49.17 Bohr mag/cell

     iteration # 23     ecut=    71.00 Ry     beta= 0.30
     Davidson diagonalization with overlap
     ethr =  2.66E-09,  avg # of iterations =  4.3

     total cpu time spent up to now is     4429.8 secs

     total energy              =  -10638.64925864 Ry
     estimated scf accuracy    <       0.00001006 Ry

     total magnetization       =    -0.49 Bohr mag/cell
     absolute magnetization    =    49.16 Bohr mag/cell

     iteration # 24     ecut=    71.00 Ry     beta= 0.30
     Davidson diagonalization with overlap
     ethr =  1.96E-09,  avg # of iterations =  4.9

     total cpu time spent up to now is     4666.9 secs

     total energy              =  -10638.64928282 Ry
     estimated scf accuracy    <       0.00000620 Ry

     total magnetization       =    -0.48 Bohr mag/cell
     absolute magnetization    =    49.16 Bohr mag/cell

     iteration # 25     ecut=    71.00 Ry     beta= 0.30
     Davidson diagonalization with overlap
     ethr =  1.21E-09,  avg # of iterations =  2.1

     total cpu time spent up to now is     4844.1 secs

     total energy              =  -10638.64928571 Ry
     estimated scf accuracy    <       0.00000528 Ry

     total magnetization       =    -0.49 Bohr mag/cell
     absolute magnetization    =    49.17 Bohr mag/cell

     iteration # 26     ecut=    71.00 Ry     beta= 0.30
     Davidson diagonalization with overlap
     ethr =  1.03E-09,  avg # of iterations =  4.0

     total cpu time spent up to now is     5046.9 secs

     total energy              =  -10638.64928953 Ry
     estimated scf accuracy    <       0.00000355 Ry

     total magnetization       =    -0.49 Bohr mag/cell
     absolute magnetization    =    49.16 Bohr mag/cell

     iteration # 27     ecut=    71.00 Ry     beta= 0.30
     Davidson diagonalization with overlap
     ethr =  6.93E-10,  avg # of iterations =  4.2

     total cpu time spent up to now is     5262.1 secs

     total energy              =  -10638.64929161 Ry
     estimated scf accuracy    <       0.00000234 Ry

     total magnetization       =    -0.50 Bohr mag/cell
     absolute magnetization    =    49.18 Bohr mag/cell

     iteration # 28     ecut=    71.00 Ry     beta= 0.30
     Davidson diagonalization with overlap
     ethr =  4.57E-10,  avg # of iterations =  4.8

     total cpu time spent up to now is     5494.4 secs

     total energy              =  -10638.64929674 Ry
     estimated scf accuracy    <       0.00000164 Ry

     total magnetization       =    -0.50 Bohr mag/cell
     absolute magnetization    =    49.18 Bohr mag/cell

     iteration # 29     ecut=    71.00 Ry     beta= 0.30
     Davidson diagonalization with overlap
     ethr =  3.20E-10,  avg # of iterations =  3.0

     total cpu time spent up to now is     5684.7 secs

     total energy              =  -10638.64929756 Ry
     estimated scf accuracy    <       0.00000111 Ry

     total magnetization       =    -0.51 Bohr mag/cell
     absolute magnetization    =    49.18 Bohr mag/cell

     iteration # 30     ecut=    71.00 Ry     beta= 0.30
     Davidson diagonalization with overlap
     ethr =  2.17E-10,  avg # of iterations =  4.7

     total cpu time spent up to now is     5912.2 secs

     total energy              =  -10638.64929945 Ry
     estimated scf accuracy    <       0.00000072 Ry

     total magnetization       =    -0.52 Bohr mag/cell
     absolute magnetization    =    49.18 Bohr mag/cell

     iteration # 31     ecut=    71.00 Ry     beta= 0.30
     Davidson diagonalization with overlap
     ethr =  1.40E-10,  avg # of iterations =  2.7

     total cpu time spent up to now is     6099.5 secs

     total energy              =  -10638.64929988 Ry
     estimated scf accuracy    <       0.00000047 Ry

     total magnetization       =    -0.52 Bohr mag/cell
     absolute magnetization    =    49.17 Bohr mag/cell

     iteration # 32     ecut=    71.00 Ry     beta= 0.30
     Davidson diagonalization with overlap
     ethr =  9.16E-11,  avg # of iterations =  4.7

     total cpu time spent up to now is     6325.4 secs

     total energy              =  -10638.64929984 Ry
     estimated scf accuracy    <       0.00000030 Ry

     total magnetization       =    -0.53 Bohr mag/cell
     absolute magnetization    =    49.16 Bohr mag/cell

     iteration # 33     ecut=    71.00 Ry     beta= 0.30
     Davidson diagonalization with overlap
     ethr =  5.89E-11,  avg # of iterations =  4.8

     total cpu time spent up to now is     6575.8 secs

     total energy              =  -10638.64930086 Ry
     estimated scf accuracy    <       0.00000014 Ry

     total magnetization       =    -0.53 Bohr mag/cell
     absolute magnetization    =    49.16 Bohr mag/cell

     iteration # 34     ecut=    71.00 Ry     beta= 0.30
     Davidson diagonalization with overlap
     ethr =  2.73E-11,  avg # of iterations =  3.7

     total cpu time spent up to now is     6777.6 secs

     total energy              =  -10638.64930084 Ry
     estimated scf accuracy    <       0.00000009 Ry

     total magnetization       =    -0.53 Bohr mag/cell
     absolute magnetization    =    49.15 Bohr mag/cell

     iteration # 35     ecut=    71.00 Ry     beta= 0.30
     Davidson diagonalization with overlap
     ethr =  1.72E-11,  avg # of iterations =  5.0

     total cpu time spent up to now is     7029.4 secs

     total energy              =  -10638.64930103 Ry
     estimated scf accuracy    <       0.00000005 Ry

     total magnetization       =    -0.54 Bohr mag/cell
     absolute magnetization    =    49.15 Bohr mag/cell

     iteration # 36     ecut=    71.00 Ry     beta= 0.30
     Davidson diagonalization with overlap
     ethr =  9.13E-12,  avg # of iterations =  4.0

     total cpu time spent up to now is     7232.6 secs

     total energy              =  -10638.64930097 Ry
     estimated scf accuracy    <       0.00000004 Ry

     total magnetization       =    -0.53 Bohr mag/cell
     absolute magnetization    =    49.15 Bohr mag/cell

     iteration # 37     ecut=    71.00 Ry     beta= 0.30
     Davidson diagonalization with overlap
     ethr =  7.54E-12,  avg # of iterations =  4.8

     total cpu time spent up to now is     7478.2 secs

     total energy              =  -10638.64930112 Ry
     estimated scf accuracy    <       0.00000002 Ry

     total magnetization       =    -0.54 Bohr mag/cell
     absolute magnetization    =    49.15 Bohr mag/cell

     iteration # 38     ecut=    71.00 Ry     beta= 0.30
     Davidson diagonalization with overlap
     ethr =  4.15E-12,  avg # of iterations =  3.6

     total cpu time spent up to now is     7679.0 secs

     total energy              =  -10638.64930113 Ry
     estimated scf accuracy    <       0.00000002 Ry

     total magnetization       =    -0.54 Bohr mag/cell
     absolute magnetization    =    49.15 Bohr mag/cell

     iteration # 39     ecut=    71.00 Ry     beta= 0.30
     Davidson diagonalization with overlap
     ethr =  3.68E-12,  avg # of iterations =  4.1
 
     Magnetic moment per site:
     atom:    1    charge:   13.4611    magn:    0.1745    constr:    0.0000
     atom:    2    charge:   14.3882    magn:   -1.5011    constr:    0.0000
     atom:    3    charge:   14.2889    magn:    1.6878    constr:    0.0000
     atom:    4    charge:   14.3882    magn:   -1.5012    constr:    0.0000
     atom:    5    charge:   14.2829    magn:    1.4357    constr:    0.0000
     atom:    6    charge:   14.3911    magn:   -1.4885    constr:    0.0000
     atom:    7    charge:   14.2889    magn:    1.6878    constr:    0.0000
     atom:    8    charge:   14.3882    magn:   -1.5012    constr:    0.0000
     atom:    9    charge:   14.2850    magn:    1.4606    constr:    0.0000
     atom:   10    charge:   14.3882    magn:   -1.5011    constr:    0.0000
     atom:   11    charge:   14.2873    magn:    1.5800    constr:    0.0000
     atom:   12    charge:   14.3882    magn:   -1.5012    constr:    0.0000
     atom:   13    charge:   14.2993    magn:    1.3412    constr:    0.0000
     atom:   14    charge:   14.3911    magn:   -1.4885    constr:    0.0000
     atom:   15    charge:   14.2873    magn:    1.5800    constr:    0.0000
     atom:   16    charge:   14.3882    magn:   -1.5012    constr:    0.0000
     atom:   17    charge:   14.2829    magn:    1.4355    constr:    0.0000
     atom:   18    charge:   14.3882    magn:   -1.5011    constr:    0.0000
     atom:   19    charge:   14.2889    magn:    1.6878    constr:    0.0000
     atom:   20    charge:   14.3911    magn:   -1.4887    constr:    0.0000
     atom:   21    charge:   14.3128    magn:    1.5181    constr:    0.0000
     atom:   22    charge:   14.3911    magn:   -1.4885    constr:    0.0000
     atom:   23    charge:   14.2889    magn:    1.6878    constr:    0.0000
     atom:   24    charge:   14.3911    magn:   -1.4887    constr:    0.0000
     atom:   25    charge:   14.2993    magn:    1.3411    constr:    0.0000
     atom:   26    charge:   14.3882    magn:   -1.5011    constr:    0.0000
     atom:   27    charge:   14.2873    magn:    1.5800    constr:    0.0000
     atom:   28    charge:   14.3911    magn:   -1.4887    constr:    0.0000
     atom:   29    charge:   14.2903    magn:    1.4697    constr:    0.0000
     atom:   30    charge:   14.3911    magn:   -1.4885    constr:    0.0000
     atom:   31    charge:   14.2873    magn:    1.5800    constr:    0.0000
     atom:   32    charge:   14.3911    magn:   -1.4887    constr:    0.0000

     total cpu time spent up to now is     7885.2 secs

     End of self-consistent calculation

     Number of k-points >= 100: set verbosity='high' to print the bands.

     the Fermi energy is    20.1761 ev

!    total energy              =  -10638.64930116 Ry

     total all-electron energy =    -87974.354024 Ry
     estimated scf accuracy    <          8.5E-09 Ry
     smearing contrib. (-TS)   =       0.01316323 Ry
     internal energy E=F+TS    =  -10638.66246438 Ry

     The total energy is F=E-TS. E is the sum of the following terms:
     one-electron contribution =   -3240.86659194 Ry
     hartree contribution      =    1972.18058167 Ry
     xc contribution           =    -888.27347222 Ry
     ewald contribution        =   -5677.77624550 Ry
     one-center paw contrib.   =   -2803.92673640 Ry

     total magnetization       =    -0.54 Bohr mag/cell
     absolute magnetization    =    49.15 Bohr mag/cell

     convergence has been achieved in  39 iterations

     Forces acting on atoms (cartesian axes, Ry/au):

     atom    1 type  1   force =     0.00000000    0.00000000    0.00000000
     atom    2 type  3   force =     0.00008277   -0.00010942    0.00000000
     atom    3 type  4   force =    -0.00001936    0.00000000   -0.00001645
     atom    4 type  5   force =     0.00000000   -0.00011033    0.00007904
     atom    5 type  2   force =     0.00000000    0.00000000    0.00000000
     atom    6 type  3   force =     0.00000663    0.00002696    0.00000000
     atom    7 type  4   force =    -0.00001936    0.00000000    0.00001645
     atom    8 type  5   force =     0.00000000   -0.00011033   -0.00007904
     atom    9 type  2   force =     0.00000000    0.00000000    0.00000000
     atom   10 type  3   force =     0.00008277    0.00010942   -0.00000000
     atom   11 type  4   force =    -0.00002597    0.00000000   -0.00002634
     atom   12 type  5   force =     0.00000000    0.00011033    0.00007904
     atom   13 type  2   force =     0.00000000    0.00000000    0.00000000
     atom   14 type  3   force =     0.00000663   -0.00002696    0.00000000
     atom   15 type  4   force =    -0.00002597    0.00000000    0.00002634
     atom   16 type  5   force =     0.00000000    0.00011033   -0.00007904
     atom   17 type  2   force =     0.00000000    0.00000000    0.00000000
     atom   18 type  3   force =    -0.00008277   -0.00010942   -0.00000000
     atom   19 type  4   force =     0.00001936    0.00000000   -0.00001645
     atom   20 type  5   force =     0.00000000    0.00002624    0.00000804
     atom   21 type  2   force =     0.00000000    0.00000000    0.00000000
     atom   22 type  3   force =    -0.00000663    0.00002696    0.00000000
     atom   23 type  4   force =     0.00001936    0.00000000    0.00001645
     atom   24 type  5   force =     0.00000000    0.00002624   -0.00000804
     atom   25 type  2   force =     0.00000000    0.00000000    0.00000000
     atom   26 type  3   force =    -0.00008277    0.00010942    0.00000000
     atom   27 type  4   force =     0.00002597    0.00000000   -0.00002634
     atom   28 type  5   force =     0.00000000   -0.00002624    0.00000804
     atom   29 type  2   force =     0.00000000    0.00000000    0.00000000
     atom   30 type  3   force =    -0.00000663   -0.00002696    0.00000000
     atom   31 type  4   force =     0.00002597    0.00000000    0.00002634
     atom   32 type  5   force =     0.00000000   -0.00002624   -0.00000804

     Total force =     0.000404     Total SCF correction =     0.000300
     SCF correction compared to forces is large: reduce conv_thr to get better values


     Computing stress (Cartesian axis) and pressure

          total   stress  (Ry/bohr**3)                   (kbar)     P=        0.10
   0.00000105   0.00000000   0.00000000            0.15        0.00        0.00
   0.00000000   0.00000010   0.00000000            0.00        0.01        0.00
   0.00000000   0.00000000   0.00000090            0.00        0.00        0.13


     BFGS Geometry Optimization
     Energy error            =      0.0E+00
     Gradient error          =      1.1E-04
     Cell gradient error     =      1.0E-06


     bfgs converged in   1 scf cycles and   0 bfgs steps
     (criteria: energy <  1.0E-04 Ry, force <  1.0E-03Ry/Bohr, cell <  5.0E-01kbar)

     End of BFGS Geometry Optimization

     Final enthalpy =  -10638.6493011593 Ry
Begin final coordinates
     new unit-cell volume =   2313.34004 a.u.^3 (   342.80163 Ang^3 )
     density =      8.87553 g/cm^3

CELL_PARAMETERS (alat= 12.99989883)
   1.000000000   0.000000000   0.000000000
   0.000000000   1.052978632   0.000000000
   0.000000000   0.000000000   1.000000000

ATOMIC_POSITIONS (crystal)
Ru            0.0000000000        0.0000000000        0.0000000000
Fe2           0.2523704027        0.2526634519        0.0000000000
Fe3           0.2548849156        0.0000000000        0.2548841609
Fe4           0.0000000000        0.2526635907        0.2523716134
Fe1           0.0000000000        0.0000000000        0.5000000000
Fe2           0.2504046863        0.2507139625        0.5000000000
Fe3           0.2548849156        0.0000000000        0.7451148381
Fe4           0.0000000000        0.2526635907        0.7476273846
Fe1           0.0000000000        0.5000000950        0.0000000000
Fe2           0.2523704027        0.7473368331        0.0000000000
Fe3           0.2504147424        0.5000000950        0.2504153319
Fe4           0.0000000000        0.7473366943        0.2523716134
Fe1           0.0000000000        0.5000000950        0.5000000000
Fe2           0.2504046863        0.7492863225        0.5000000000
Fe3           0.2504147424        0.5000000950        0.7495846681
Fe4           0.0000000000        0.7473366943        0.7476273846
Fe1           0.4999998000        0.0000000000        0.0000000000
Fe2           0.7476290963        0.2526634519        0.0000000000
Fe3           0.7451146844        0.0000000000        0.2548841609
Fe4           0.4999998000        0.2507141903        0.2504032450
Fe1           0.4999998000        0.0000000000        0.5000000000
Fe2           0.7495948127        0.2507139625        0.5000000000
Fe3           0.7451146844        0.0000000000        0.7451148381
Fe4           0.4999998000        0.2507141903        0.7495957540
Fe1           0.4999998000        0.5000000950        0.0000000000
Fe2           0.7476290963        0.7473368331        0.0000000000
Fe3           0.7495848566        0.5000000950        0.2504153319
Fe4           0.4999998000        0.7492860947        0.2504032450
Fe1           0.4999998000        0.5000000950        0.5000000000
Fe2           0.7495948127        0.7492863225        0.5000000000
Fe3           0.7495848566        0.5000000950        0.7495846681
Fe4           0.4999998000        0.7492860947        0.7495957540
End final coordinates



     Writing output data file /scratch/bxp912/feru1b.save/

     Final scf calculation at the relaxed structure.
     The G-vectors are recalculated for the final unit cell
     Results may differ from those at the preceding step.
 
     Parallelization info
     --------------------
     sticks:   dense  smooth     PW     G-vecs:    dense   smooth      PW
     Min          84      55     15                 4834     2593     373
     Max          85      56     16                 4839     2600     378
     Sum        6087    4017   1115               348163   187025   27031
 


     bravais-lattice index     =            0
     lattice parameter (alat)  =      12.9999  a.u.
     unit-cell volume          =    2313.3400 (a.u.)^3
     number of atoms/cell      =           32
     number of atomic types    =            5
     number of electrons       =       512.00
     number of Kohn-Sham states=          307
     kinetic-energy cutoff     =      71.0000  Ry
     charge density cutoff     =     430.0000  Ry
     scf convergence threshold =      1.0E-08
     mixing beta               =       0.3000
     number of iterations used =           10  local-TF  mixing
     press convergence thresh. =      5.0E-01
     Exchange-correlation= SLA  PW   PBX  PBC
                           (   1   4   3   4   0   0   0)

     celldm(1)=  12.999899  celldm(2)=   0.000000  celldm(3)=   0.000000
     celldm(4)=   0.000000  celldm(5)=   0.000000  celldm(6)=   0.000000

     crystal axes: (cart. coord. in units of alat)
               a(1) = (   1.000000   0.000000   0.000000 )  
               a(2) = (   0.000000   1.052979   0.000000 )  
               a(3) = (   0.000000   0.000000   1.000000 )  

     reciprocal axes: (cart. coord. in units 2 pi/alat)
               b(1) = (  1.000000  0.000000  0.000000 )  
               b(2) = (  0.000000  0.949687  0.000000 )  
               b(3) = (  0.000000  0.000000  1.000000 )  


     PseudoPot. # 1 for Ru read from file:
     /rds/homes/b/bxp912/pp/Ru.pbe-spn-kjpaw_psl.1.0.0.UPF
     MD5 check sum: 0ae1f594dea09af7be8575c3a481d1ae
     Pseudo is Projector augmented-wave + core cor, Zval = 16.0
     Generated using "atomic" code by A. Dal Corso  v.5.1
     Shape of augmentation charge: PSQ
     Using radial grid of 1233 points,  6 beta functions with: 
                l(1) =   0
                l(2) =   0
                l(3) =   1
                l(4) =   1
                l(5) =   2
                l(6) =   2
     Q(r) pseudized with 0 coefficients 


     PseudoPot. # 2 for Fe read from file:
     /rds/homes/b/bxp912/pp/Fe.pbe-spn-kjpaw_psl.1.0.0.UPF
     MD5 check sum: 42f43b795421b414b0dc916aa790dbcb
     Pseudo is Projector augmented-wave + core cor, Zval = 16.0
     Generated using &quot;atomic&quot; code by A. Dal Corso  v.6.3
     Shape of augmentation charge: PSQ
     Using radial grid of 1191 points,  6 beta functions with: 
                l(1) =   0
                l(2) =   0
                l(3) =   1
                l(4) =   1
                l(5) =   2
                l(6) =   2
     Q(r) pseudized with 0 coefficients 


     PseudoPot. # 3 for Fe read from file:
     /rds/homes/b/bxp912/pp/Fe.pbe-spn-kjpaw_psl.1.0.0.UPF
     MD5 check sum: 42f43b795421b414b0dc916aa790dbcb
     Pseudo is Projector augmented-wave + core cor, Zval = 16.0
     Generated using &quot;atomic&quot; code by A. Dal Corso  v.6.3
     Shape of augmentation charge: PSQ
     Using radial grid of 1191 points,  6 beta functions with: 
                l(1) =   0
                l(2) =   0
                l(3) =   1
                l(4) =   1
                l(5) =   2
                l(6) =   2
     Q(r) pseudized with 0 coefficients 


     PseudoPot. # 4 for Fe read from file:
     /rds/homes/b/bxp912/pp/Fe.pbe-spn-kjpaw_psl.1.0.0.UPF
     MD5 check sum: 42f43b795421b414b0dc916aa790dbcb
     Pseudo is Projector augmented-wave + core cor, Zval = 16.0
     Generated using &quot;atomic&quot; code by A. Dal Corso  v.6.3
     Shape of augmentation charge: PSQ
     Using radial grid of 1191 points,  6 beta functions with: 
                l(1) =   0
                l(2) =   0
                l(3) =   1
                l(4) =   1
                l(5) =   2
                l(6) =   2
     Q(r) pseudized with 0 coefficients 


     PseudoPot. # 5 for Fe read from file:
     /rds/homes/b/bxp912/pp/Fe.pbe-spn-kjpaw_psl.1.0.0.UPF
     MD5 check sum: 42f43b795421b414b0dc916aa790dbcb
     Pseudo is Projector augmented-wave + core cor, Zval = 16.0
     Generated using &quot;atomic&quot; code by A. Dal Corso  v.6.3
     Shape of augmentation charge: PSQ
     Using radial grid of 1191 points,  6 beta functions with: 
                l(1) =   0
                l(2) =   0
                l(3) =   1
                l(4) =   1
                l(5) =   2
                l(6) =   2
     Q(r) pseudized with 0 coefficients 


     atomic species   valence    mass     pseudopotential
        Ru            16.00   101.07000     Ru( 1.00)
        Fe1           16.00    55.84500     Fe( 1.00)
        Fe2           16.00    55.84500     Fe( 1.00)
        Fe3           16.00    55.84500     Fe( 1.00)
        Fe4           16.00    55.84500     Fe( 1.00)

     Starting magnetic structure 
     atomic species   magnetization
        Ru           0.013
        Fe1          0.100
        Fe2         -0.104
        Fe3          0.114
        Fe4         -0.104

      8 Sym. Ops., with inversion, found



   Cartesian axes

     site n.     atom                  positions (alat units)
         1           Ru  tau(   1) = (   0.0000000   0.0000000   0.0000000  )
         2           Fe2 tau(   2) = (   0.2523704   0.2660492   0.0000000  )
         3           Fe3 tau(   3) = (   0.2548849   0.0000000   0.2548842  )
         4           Fe4 tau(   4) = (   0.0000000   0.2660494   0.2523716  )
         5           Fe1 tau(   5) = (   0.0000000   0.0000000   0.5000000  )
         6           Fe2 tau(   6) = (   0.2504047   0.2639964   0.5000000  )
         7           Fe3 tau(   7) = (   0.2548849   0.0000000   0.7451148  )
         8           Fe4 tau(   8) = (   0.0000000   0.2660494   0.7476274  )
         9           Fe1 tau(   9) = (   0.0000000   0.5264894   0.0000000  )
        10           Fe2 tau(  10) = (   0.2523704   0.7869297   0.0000000  )
        11           Fe3 tau(  11) = (   0.2504147   0.5264894   0.2504153  )
        12           Fe4 tau(  12) = (   0.0000000   0.7869296   0.2523716  )
        13           Fe1 tau(  13) = (   0.0000000   0.5264894   0.5000000  )
        14           Fe2 tau(  14) = (   0.2504047   0.7889825   0.5000000  )
        15           Fe3 tau(  15) = (   0.2504147   0.5264894   0.7495847  )
        16           Fe4 tau(  16) = (   0.0000000   0.7869296   0.7476274  )
        17           Fe1 tau(  17) = (   0.4999998   0.0000000   0.0000000  )
        18           Fe2 tau(  18) = (   0.7476291   0.2660492   0.0000000  )
        19           Fe3 tau(  19) = (   0.7451147   0.0000000   0.2548842  )
        20           Fe4 tau(  20) = (   0.4999998   0.2639967   0.2504032  )
        21           Fe1 tau(  21) = (   0.4999998   0.0000000   0.5000000  )
        22           Fe2 tau(  22) = (   0.7495948   0.2639964   0.5000000  )
        23           Fe3 tau(  23) = (   0.7451147   0.0000000   0.7451148  )
        24           Fe4 tau(  24) = (   0.4999998   0.2639967   0.7495958  )
        25           Fe1 tau(  25) = (   0.4999998   0.5264894   0.0000000  )
        26           Fe2 tau(  26) = (   0.7476291   0.7869297   0.0000000  )
        27           Fe3 tau(  27) = (   0.7495849   0.5264894   0.2504153  )
        28           Fe4 tau(  28) = (   0.4999998   0.7889822   0.2504032  )
        29           Fe1 tau(  29) = (   0.4999998   0.5264894   0.5000000  )
        30           Fe2 tau(  30) = (   0.7495948   0.7889825   0.5000000  )
        31           Fe3 tau(  31) = (   0.7495849   0.5264894   0.7495847  )
        32           Fe4 tau(  32) = (   0.4999998   0.7889822   0.7495958  )

     number of k points=   125  Marzari-Vanderbilt smearing, width (Ry)=  0.0400

     Number of k-points >= 100: set verbosity='high' to print them.

     Dense  grid:   348163 G-vectors     FFT dimensions: (  90,  96,  90)

     Smooth grid:   187025 G-vectors     FFT dimensions: (  72,  75,  72)

     Estimated max dynamical RAM per process >     422.61 MB

     Estimated total dynamical RAM >      29.71 GB

     Check: negative core charge=   -0.000006
     Generating pointlists ...

     Initial potential from superposition of free atoms

     starting charge  511.98580, renormalised to  512.00000
     Starting wfcs are  320 randomized atomic wfcs
     Checking if some PAW data can be deallocated... 

     total cpu time spent up to now is     8133.0 secs

     Self-consistent Calculation

     iteration #  1     ecut=    71.00 Ry     beta= 0.30
     Davidson diagonalization with overlap
     c_bands:  1 eigenvalues not converged
     c_bands:  3 eigenvalues not converged
     c_bands:  4 eigenvalues not converged
     c_bands:  3 eigenvalues not converged
     c_bands:  3 eigenvalues not converged
     c_bands:  4 eigenvalues not converged
     c_bands:  3 eigenvalues not converged
     c_bands:  3 eigenvalues not converged
     c_bands:  4 eigenvalues not converged
     c_bands:  1 eigenvalues not converged
     c_bands:  3 eigenvalues not converged
     c_bands:  2 eigenvalues not converged
     c_bands:  1 eigenvalues not converged
     c_bands:  3 eigenvalues not converged
     c_bands:  3 eigenvalues not converged
     c_bands:  1 eigenvalues not converged
     c_bands:  2 eigenvalues not converged
     c_bands:  1 eigenvalues not converged
     c_bands:  3 eigenvalues not converged
     c_bands:  2 eigenvalues not converged
     c_bands:  1 eigenvalues not converged
     c_bands:  2 eigenvalues not converged
     c_bands:  2 eigenvalues not converged
     c_bands:  1 eigenvalues not converged
     c_bands:  1 eigenvalues not converged
     c_bands:  1 eigenvalues not converged
     c_bands:  1 eigenvalues not converged
     c_bands:  1 eigenvalues not converged
     c_bands:  1 eigenvalues not converged
     c_bands:  1 eigenvalues not converged
     c_bands:  3 eigenvalues not converged
     c_bands:  3 eigenvalues not converged
     c_bands:  2 eigenvalues not converged
     c_bands:  3 eigenvalues not converged
     c_bands:  1 eigenvalues not converged
     c_bands:  3 eigenvalues not converged
     c_bands:  1 eigenvalues not converged
     c_bands:  1 eigenvalues not converged
     c_bands:  3 eigenvalues not converged
     c_bands:  3 eigenvalues not converged
     c_bands:  2 eigenvalues not converged
     c_bands:  1 eigenvalues not converged
     c_bands:  4 eigenvalues not converged
     c_bands:  1 eigenvalues not converged
     c_bands:  3 eigenvalues not converged
     c_bands:  4 eigenvalues not converged
     c_bands:  1 eigenvalues not converged
     c_bands:  2 eigenvalues not converged
     c_bands:  3 eigenvalues not converged
     c_bands:  3 eigenvalues not converged
     c_bands:  1 eigenvalues not converged
     c_bands:  1 eigenvalues not converged
     c_bands:  2 eigenvalues not converged
     c_bands:  3 eigenvalues not converged
     c_bands:  3 eigenvalues not converged
     c_bands:  3 eigenvalues not converged
     c_bands:  3 eigenvalues not converged
     c_bands:  4 eigenvalues not converged
     c_bands:  2 eigenvalues not converged
     c_bands:  3 eigenvalues not converged
     c_bands:  1 eigenvalues not converged
     c_bands:  3 eigenvalues not converged
     c_bands:  2 eigenvalues not converged
     c_bands:  1 eigenvalues not converged
     c_bands:  1 eigenvalues not converged
     c_bands:  2 eigenvalues not converged
     c_bands:  3 eigenvalues not converged
     c_bands:  2 eigenvalues not converged
     c_bands:  3 eigenvalues not converged
     c_bands:  4 eigenvalues not converged
     c_bands:  3 eigenvalues not converged
     c_bands:  2 eigenvalues not converged
     c_bands:  3 eigenvalues not converged
     c_bands:  4 eigenvalues not converged
     c_bands:  1 eigenvalues not converged
     c_bands:  3 eigenvalues not converged
     c_bands:  2 eigenvalues not converged
     c_bands:  2 eigenvalues not converged
     c_bands:  2 eigenvalues not converged
     c_bands:  1 eigenvalues not converged
     c_bands:  2 eigenvalues not converged
     c_bands:  1 eigenvalues not converged
     c_bands:  2 eigenvalues not converged
     c_bands:  1 eigenvalues not converged
     c_bands:  1 eigenvalues not converged
     c_bands:  1 eigenvalues not converged
     c_bands:  1 eigenvalues not converged
     c_bands:  1 eigenvalues not converged
     c_bands:  1 eigenvalues not converged
     c_bands:  1 eigenvalues not converged
     c_bands:  1 eigenvalues not converged
     c_bands:  3 eigenvalues not converged
     c_bands:  2 eigenvalues not converged
     c_bands:  3 eigenvalues not converged
     c_bands:  2 eigenvalues not converged
     c_bands:  1 eigenvalues not converged
     c_bands:  1 eigenvalues not converged
     c_bands:  3 eigenvalues not converged
     c_bands:  2 eigenvalues not converged
     c_bands:  4 eigenvalues not converged
     c_bands:  1 eigenvalues not converged
     c_bands:  4 eigenvalues not converged
     c_bands:  1 eigenvalues not converged
     c_bands:  3 eigenvalues not converged
     c_bands:  3 eigenvalues not converged
     c_bands:  1 eigenvalues not converged
     c_bands:  2 eigenvalues not converged
     c_bands:  3 eigenvalues not converged
     c_bands:  3 eigenvalues not converged
     c_bands:  2 eigenvalues not converged
     c_bands:  1 eigenvalues not converged
     c_bands:  2 eigenvalues not converged
     c_bands:  3 eigenvalues not converged
     c_bands:  4 eigenvalues not converged
     c_bands:  1 eigenvalues not converged
     c_bands:  3 eigenvalues not converged
     c_bands:  3 eigenvalues not converged
     c_bands:  2 eigenvalues not converged
     c_bands:  1 eigenvalues not converged
     c_bands:  5 eigenvalues not converged
     c_bands:  5 eigenvalues not converged
     c_bands:  2 eigenvalues not converged
     c_bands:  3 eigenvalues not converged
     c_bands:  2 eigenvalues not converged
     c_bands:  4 eigenvalues not converged
     c_bands:  1 eigenvalues not converged
     c_bands:  3 eigenvalues not converged
     c_bands:  1 eigenvalues not converged
     c_bands:  3 eigenvalues not converged
     c_bands:  1 eigenvalues not converged
     c_bands:  2 eigenvalues not converged
     c_bands:  1 eigenvalues not converged
     c_bands:  1 eigenvalues not converged
     c_bands:  4 eigenvalues not converged
     c_bands:  2 eigenvalues not converged
     c_bands:  1 eigenvalues not converged
     c_bands:  1 eigenvalues not converged
     c_bands:  5 eigenvalues not converged
     c_bands:  4 eigenvalues not converged
     c_bands:  1 eigenvalues not converged
     c_bands:  1 eigenvalues not converged
     c_bands:  1 eigenvalues not converged
     c_bands:  3 eigenvalues not converged
     c_bands:  1 eigenvalues not converged
     c_bands:  3 eigenvalues not converged
     c_bands:  1 eigenvalues not converged
     c_bands:  2 eigenvalues not converged
     c_bands:  1 eigenvalues not converged
     c_bands:  1 eigenvalues not converged
     c_bands:  4 eigenvalues not converged
     c_bands:  3 eigenvalues not converged
     c_bands:  3 eigenvalues not converged
     c_bands:  1 eigenvalues not converged
     c_bands:  3 eigenvalues not converged
     c_bands:  1 eigenvalues not converged
     c_bands:  1 eigenvalues not converged
     c_bands:  5 eigenvalues not converged
     c_bands:  1 eigenvalues not converged
     c_bands:  1 eigenvalues not converged
     c_bands:  2 eigenvalues not converged
     c_bands:  3 eigenvalues not converged
     c_bands:  1 eigenvalues not converged
     c_bands:  1 eigenvalues not converged
     c_bands:  2 eigenvalues not converged
     c_bands:  3 eigenvalues not converged
     c_bands:  3 eigenvalues not converged
     c_bands:  3 eigenvalues not converged
     c_bands:  3 eigenvalues not converged
     c_bands:  4 eigenvalues not converged
     c_bands:  3 eigenvalues not converged
     c_bands:  4 eigenvalues not converged
     c_bands:  1 eigenvalues not converged
     c_bands:  3 eigenvalues not converged
     c_bands:  2 eigenvalues not converged
     c_bands:  1 eigenvalues not converged
     c_bands:  2 eigenvalues not converged
     c_bands:  3 eigenvalues not converged
     c_bands:  1 eigenvalues not converged
     c_bands:  3 eigenvalues not converged
     c_bands:  4 eigenvalues not converged
     c_bands:  1 eigenvalues not converged
     c_bands:  4 eigenvalues not converged
     c_bands:  3 eigenvalues not converged
     c_bands:  5 eigenvalues not converged
     c_bands:  5 eigenvalues not converged
     c_bands:  3 eigenvalues not converged
     c_bands:  2 eigenvalues not converged
     c_bands:  2 eigenvalues not converged
     c_bands:  1 eigenvalues not converged
     c_bands:  3 eigenvalues not converged
     c_bands:  1 eigenvalues not converged
     c_bands:  2 eigenvalues not converged
     c_bands:  1 eigenvalues not converged
     c_bands:  2 eigenvalues not converged
     c_bands:  2 eigenvalues not converged
     c_bands:  1 eigenvalues not converged
     c_bands:  1 eigenvalues not converged
     c_bands:  1 eigenvalues not converged
     c_bands:  4 eigenvalues not converged
     c_bands:  1 eigenvalues not converged
     c_bands:  1 eigenvalues not converged
     c_bands:  3 eigenvalues not converged
     c_bands:  1 eigenvalues not converged
     c_bands:  2 eigenvalues not converged
     c_bands:  2 eigenvalues not converged
     c_bands:  1 eigenvalues not converged
     c_bands:  3 eigenvalues not converged
     c_bands:  2 eigenvalues not converged
     c_bands:  4 eigenvalues not converged
     c_bands:  1 eigenvalues not converged
     c_bands:  4 eigenvalues not converged
     c_bands:  1 eigenvalues not converged
     c_bands:  3 eigenvalues not converged
     c_bands:  3 eigenvalues not converged
     c_bands:  1 eigenvalues not converged
     c_bands:  3 eigenvalues not converged
     c_bands:  3 eigenvalues not converged
     c_bands:  2 eigenvalues not converged
     c_bands:  1 eigenvalues not converged
     c_bands:  3 eigenvalues not converged
     ethr =  1.00E-06,  avg # of iterations = 21.0

     total cpu time spent up to now is     8969.9 secs

     total energy              =  -10638.63243418 Ry
     estimated scf accuracy    <       1.89081429 Ry

     total magnetization       =    -0.28 Bohr mag/cell
     absolute magnetization    =    45.08 Bohr mag/cell

     iteration #  2     ecut=    71.00 Ry     beta= 0.30
     Davidson diagonalization with overlap
     ethr =  3.69E-04,  avg # of iterations =  2.0

     total cpu time spent up to now is     9163.5 secs

     total energy              =  -10638.46892922 Ry
     estimated scf accuracy    <       0.53329394 Ry

     total magnetization       =    -0.70 Bohr mag/cell
     absolute magnetization    =    45.95 Bohr mag/cell

     iteration #  3     ecut=    71.00 Ry     beta= 0.30
     Davidson diagonalization with overlap
     ethr =  1.04E-04,  avg # of iterations =  4.0

     total cpu time spent up to now is     9368.1 secs

     total energy              =  -10638.56156223 Ry
     estimated scf accuracy    <       0.34370825 Ry

     total magnetization       =     0.02 Bohr mag/cell
     absolute magnetization    =    46.85 Bohr mag/cell

     iteration #  4     ecut=    71.00 Ry     beta= 0.30
     Davidson diagonalization with overlap
     ethr =  6.71E-05,  avg # of iterations =  2.2

     total cpu time spent up to now is     9535.9 secs

     total energy              =  -10638.60793462 Ry
     estimated scf accuracy    <       0.03823083 Ry

     total magnetization       =    -0.47 Bohr mag/cell
     absolute magnetization    =    47.15 Bohr mag/cell

     iteration #  5     ecut=    71.00 Ry     beta= 0.30
     Davidson diagonalization with overlap
     ethr =  7.47E-06,  avg # of iterations =  7.1

     total cpu time spent up to now is     9760.5 secs

     total energy              =  -10638.62484472 Ry
     estimated scf accuracy    <       0.03473184 Ry

     total magnetization       =    -0.58 Bohr mag/cell
     absolute magnetization    =    47.39 Bohr mag/cell

     iteration #  6     ecut=    71.00 Ry     beta= 0.30
     Davidson diagonalization with overlap
     ethr =  6.78E-06,  avg # of iterations =  1.2

     total cpu time spent up to now is     9912.8 secs

     total energy              =  -10638.64223328 Ry
     estimated scf accuracy    <       0.01406270 Ry

     total magnetization       =    -0.49 Bohr mag/cell
     absolute magnetization    =    47.53 Bohr mag/cell

     iteration #  7     ecut=    71.00 Ry     beta= 0.30
     Davidson diagonalization with overlap
     ethr =  2.75E-06,  avg # of iterations =  3.2

     total cpu time spent up to now is    10115.3 secs

     total energy              =  -10638.64781834 Ry
     estimated scf accuracy    <       0.00537973 Ry

     total magnetization       =    -0.42 Bohr mag/cell
     absolute magnetization    =    47.99 Bohr mag/cell

     iteration #  8     ecut=    71.00 Ry     beta= 0.30
     Davidson diagonalization with overlap
     ethr =  1.05E-06,  avg # of iterations =  3.3

     total cpu time spent up to now is    10305.2 secs

     total energy              =  -10638.64844992 Ry
     estimated scf accuracy    <       0.00260758 Ry

     total magnetization       =    -0.49 Bohr mag/cell
     absolute magnetization    =    48.24 Bohr mag/cell

     iteration #  9     ecut=    71.00 Ry     beta= 0.30
     Davidson diagonalization with overlap
     c_bands:  1 eigenvalues not converged
     c_bands:  1 eigenvalues not converged
     ethr =  5.09E-07,  avg # of iterations =  3.3

     total cpu time spent up to now is    10490.5 secs

     total energy              =  -10638.64887510 Ry
     estimated scf accuracy    <       0.00076079 Ry

     total magnetization       =    -0.50 Bohr mag/cell
     absolute magnetization    =    48.46 Bohr mag/cell

     iteration # 10     ecut=    71.00 Ry     beta= 0.30
     Davidson diagonalization with overlap
     ethr =  1.49E-07,  avg # of iterations =  3.8

     total cpu time spent up to now is    10688.9 secs

     total energy              =  -10638.64903644 Ry
     estimated scf accuracy    <       0.00049421 Ry

     total magnetization       =    -0.48 Bohr mag/cell
     absolute magnetization    =    48.58 Bohr mag/cell

     iteration # 11     ecut=    71.00 Ry     beta= 0.30
     Davidson diagonalization with overlap
     ethr =  9.65E-08,  avg # of iterations =  2.0

     total cpu time spent up to now is    10859.0 secs

     total energy              =  -10638.64911458 Ry
     estimated scf accuracy    <       0.00018976 Ry

     total magnetization       =    -0.48 Bohr mag/cell
     absolute magnetization    =    48.66 Bohr mag/cell

     iteration # 12     ecut=    71.00 Ry     beta= 0.30
     Davidson diagonalization with overlap
     ethr =  3.71E-08,  avg # of iterations =  4.3

     total cpu time spent up to now is    11065.8 secs

     total energy              =  -10638.64919618 Ry
     estimated scf accuracy    <       0.00014182 Ry

     total magnetization       =    -0.48 Bohr mag/cell
     absolute magnetization    =    48.73 Bohr mag/cell

     iteration # 13     ecut=    71.00 Ry     beta= 0.30
     Davidson diagonalization with overlap
     ethr =  2.77E-08,  avg # of iterations =  5.6

     total cpu time spent up to now is    11341.8 secs

     total energy              =  -10638.64914650 Ry
     estimated scf accuracy    <       0.00048003 Ry

     total magnetization       =    -0.49 Bohr mag/cell
     absolute magnetization    =    49.01 Bohr mag/cell

     iteration # 14     ecut=    71.00 Ry     beta= 0.30
     Davidson diagonalization with overlap
     ethr =  2.77E-08,  avg # of iterations =  5.5

     total cpu time spent up to now is    11630.5 secs

     total energy              =  -10638.64926865 Ry
     estimated scf accuracy    <       0.00007499 Ry

     total magnetization       =    -0.50 Bohr mag/cell
     absolute magnetization    =    49.01 Bohr mag/cell

     iteration # 15     ecut=    71.00 Ry     beta= 0.30
     Davidson diagonalization with overlap
     ethr =  1.46E-08,  avg # of iterations =  3.6

     total cpu time spent up to now is    11829.4 secs

     total energy              =  -10638.64928472 Ry
     estimated scf accuracy    <       0.00001336 Ry

     total magnetization       =    -0.50 Bohr mag/cell
     absolute magnetization    =    49.08 Bohr mag/cell

     iteration # 16     ecut=    71.00 Ry     beta= 0.30
     Davidson diagonalization with overlap
     ethr =  2.61E-09,  avg # of iterations =  4.2

     total cpu time spent up to now is    12026.0 secs

     total energy              =  -10638.64929063 Ry
     estimated scf accuracy    <       0.00000854 Ry

     total magnetization       =    -0.50 Bohr mag/cell
     absolute magnetization    =    49.09 Bohr mag/cell

     iteration # 17     ecut=    71.00 Ry     beta= 0.30
     Davidson diagonalization with overlap
     ethr =  1.67E-09,  avg # of iterations =  4.4

     total cpu time spent up to now is    12242.1 secs

     total energy              =  -10638.64929503 Ry
     estimated scf accuracy    <       0.00000483 Ry

     total magnetization       =    -0.51 Bohr mag/cell
     absolute magnetization    =    49.13 Bohr mag/cell

     iteration # 18     ecut=    71.00 Ry     beta= 0.30
     Davidson diagonalization with overlap
     ethr =  9.43E-10,  avg # of iterations =  3.2

     total cpu time spent up to now is    12444.9 secs

     total energy              =  -10638.64929776 Ry
     estimated scf accuracy    <       0.00000125 Ry

     total magnetization       =    -0.51 Bohr mag/cell
     absolute magnetization    =    49.16 Bohr mag/cell

     iteration # 19     ecut=    71.00 Ry     beta= 0.30
     Davidson diagonalization with overlap
     ethr =  2.44E-10,  avg # of iterations =  4.4

     total cpu time spent up to now is    12654.1 secs

     total energy              =  -10638.64929838 Ry
     estimated scf accuracy    <       0.00000101 Ry

     total magnetization       =    -0.52 Bohr mag/cell
     absolute magnetization    =    49.17 Bohr mag/cell

     iteration # 20     ecut=    71.00 Ry     beta= 0.30
     Davidson diagonalization with overlap
     ethr =  1.97E-10,  avg # of iterations =  2.2

     total cpu time spent up to now is    12830.8 secs

     total energy              =  -10638.64929891 Ry
     estimated scf accuracy    <       0.00000061 Ry

     total magnetization       =    -0.52 Bohr mag/cell
     absolute magnetization    =    49.17 Bohr mag/cell

     iteration # 21     ecut=    71.00 Ry     beta= 0.30
     Davidson diagonalization with overlap
     ethr =  1.19E-10,  avg # of iterations =  3.8

     total cpu time spent up to now is    13037.5 secs

     total energy              =  -10638.64929944 Ry
     estimated scf accuracy    <       0.00000067 Ry

     total magnetization       =    -0.52 Bohr mag/cell
     absolute magnetization    =    49.17 Bohr mag/cell

     iteration # 22     ecut=    71.00 Ry     beta= 0.30
     Davidson diagonalization with overlap
     ethr =  1.19E-10,  avg # of iterations =  2.1

     total cpu time spent up to now is    13213.4 secs

     total energy              =  -10638.64929913 Ry
     estimated scf accuracy    <       0.00000046 Ry

     total magnetization       =    -0.52 Bohr mag/cell
     absolute magnetization    =    49.16 Bohr mag/cell

     iteration # 23     ecut=    71.00 Ry     beta= 0.30
     Davidson diagonalization with overlap
     ethr =  8.98E-11,  avg # of iterations =  5.0

     total cpu time spent up to now is    13465.2 secs

     total energy              =  -10638.64930012 Ry
     estimated scf accuracy    <       0.00000031 Ry

     total magnetization       =    -0.53 Bohr mag/cell
     absolute magnetization    =    49.16 Bohr mag/cell

     iteration # 24     ecut=    71.00 Ry     beta= 0.30
     Davidson diagonalization with overlap
     ethr =  5.99E-11,  avg # of iterations =  4.3

     total cpu time spent up to now is    13686.8 secs

     total energy              =  -10638.64930070 Ry
     estimated scf accuracy    <       0.00000016 Ry

     total magnetization       =    -0.53 Bohr mag/cell
     absolute magnetization    =    49.16 Bohr mag/cell

     iteration # 25     ecut=    71.00 Ry     beta= 0.30
     Davidson diagonalization with overlap
     ethr =  3.08E-11,  avg # of iterations =  1.6

     total cpu time spent up to now is    13844.8 secs

     total energy              =  -10638.64930075 Ry
     estimated scf accuracy    <       0.00000013 Ry

     total magnetization       =    -0.53 Bohr mag/cell
     absolute magnetization    =    49.16 Bohr mag/cell

     iteration # 26     ecut=    71.00 Ry     beta= 0.30
     Davidson diagonalization with overlap
     ethr =  2.63E-11,  avg # of iterations =  2.0

     total cpu time spent up to now is    14015.3 secs

     total energy              =  -10638.64930075 Ry
     estimated scf accuracy    <       0.00000011 Ry

     total magnetization       =    -0.53 Bohr mag/cell
     absolute magnetization    =    49.16 Bohr mag/cell

     iteration # 27     ecut=    71.00 Ry     beta= 0.30
     Davidson diagonalization with overlap
     ethr =  2.18E-11,  avg # of iterations =  4.5

     total cpu time spent up to now is    14229.1 secs

     total energy              =  -10638.64930091 Ry
     estimated scf accuracy    <       0.00000008 Ry

     total magnetization       =    -0.53 Bohr mag/cell
     absolute magnetization    =    49.15 Bohr mag/cell

     iteration # 28     ecut=    71.00 Ry     beta= 0.30
     Davidson diagonalization with overlap
     ethr =  1.55E-11,  avg # of iterations =  2.0

     total cpu time spent up to now is    14401.4 secs

     total energy              =  -10638.64930087 Ry
     estimated scf accuracy    <       0.00000006 Ry

     total magnetization       =    -0.53 Bohr mag/cell
     absolute magnetization    =    49.15 Bohr mag/cell

     iteration # 29     ecut=    71.00 Ry     beta= 0.30
     Davidson diagonalization with overlap
     ethr =  1.25E-11,  avg # of iterations =  4.9

     total cpu time spent up to now is    14647.1 secs

     total energy              =  -10638.64930107 Ry
     estimated scf accuracy    <       0.00000004 Ry

     total magnetization       =    -0.53 Bohr mag/cell
     absolute magnetization    =    49.15 Bohr mag/cell

     iteration # 30     ecut=    71.00 Ry     beta= 0.30
     Davidson diagonalization with overlap
     ethr =  8.31E-12,  avg # of iterations =  2.2

     total cpu time spent up to now is    14821.9 secs

     total energy              =  -10638.64930109 Ry
     estimated scf accuracy    <       0.00000003 Ry

     total magnetization       =    -0.53 Bohr mag/cell
     absolute magnetization    =    49.15 Bohr mag/cell

     iteration # 31     ecut=    71.00 Ry     beta= 0.30
     Davidson diagonalization with overlap
     ethr =  6.10E-12,  avg # of iterations =  4.5

     total cpu time spent up to now is    15043.0 secs

     total energy              =  -10638.64930111 Ry
     estimated scf accuracy    <       0.00000002 Ry

     total magnetization       =    -0.53 Bohr mag/cell
     absolute magnetization    =    49.15 Bohr mag/cell

     iteration # 32     ecut=    71.00 Ry     beta= 0.30
     Davidson diagonalization with overlap
     ethr =  3.50E-12,  avg # of iterations =  4.8

     total cpu time spent up to now is    15274.9 secs

     total energy              =  -10638.64930113 Ry
     estimated scf accuracy    <       0.00000001 Ry

     total magnetization       =    -0.53 Bohr mag/cell
     absolute magnetization    =    49.15 Bohr mag/cell

     iteration # 33     ecut=    71.00 Ry     beta= 0.30
     Davidson diagonalization with overlap
     ethr =  2.22E-12,  avg # of iterations =  4.9
 
     Magnetic moment per site:
     atom:    1    charge:   13.4611    magn:    0.1746    constr:    0.0000
     atom:    2    charge:   14.3882    magn:   -1.5013    constr:    0.0000
     atom:    3    charge:   14.2889    magn:    1.6877    constr:    0.0000
     atom:    4    charge:   14.3882    magn:   -1.5010    constr:    0.0000
     atom:    5    charge:   14.2828    magn:    1.4363    constr:    0.0000
     atom:    6    charge:   14.3911    magn:   -1.4887    constr:    0.0000
     atom:    7    charge:   14.2889    magn:    1.6877    constr:    0.0000
     atom:    8    charge:   14.3882    magn:   -1.5010    constr:    0.0000
     atom:    9    charge:   14.2850    magn:    1.4603    constr:    0.0000
     atom:   10    charge:   14.3882    magn:   -1.5013    constr:    0.0000
     atom:   11    charge:   14.2873    magn:    1.5801    constr:    0.0000
     atom:   12    charge:   14.3882    magn:   -1.5010    constr:    0.0000
     atom:   13    charge:   14.2993    magn:    1.3407    constr:    0.0000
     atom:   14    charge:   14.3911    magn:   -1.4887    constr:    0.0000
     atom:   15    charge:   14.2873    magn:    1.5801    constr:    0.0000
     atom:   16    charge:   14.3882    magn:   -1.5010    constr:    0.0000
     atom:   17    charge:   14.2829    magn:    1.4362    constr:    0.0000
     atom:   18    charge:   14.3882    magn:   -1.5013    constr:    0.0000
     atom:   19    charge:   14.2889    magn:    1.6877    constr:    0.0000
     atom:   20    charge:   14.3911    magn:   -1.4884    constr:    0.0000
     atom:   21    charge:   14.3128    magn:    1.5186    constr:    0.0000
     atom:   22    charge:   14.3911    magn:   -1.4887    constr:    0.0000
     atom:   23    charge:   14.2889    magn:    1.6877    constr:    0.0000
     atom:   24    charge:   14.3911    magn:   -1.4884    constr:    0.0000
     atom:   25    charge:   14.2993    magn:    1.3407    constr:    0.0000
     atom:   26    charge:   14.3882    magn:   -1.5013    constr:    0.0000
     atom:   27    charge:   14.2873    magn:    1.5801    constr:    0.0000
     atom:   28    charge:   14.3911    magn:   -1.4884    constr:    0.0000
     atom:   29    charge:   14.2904    magn:    1.4699    constr:    0.0000
     atom:   30    charge:   14.3911    magn:   -1.4887    constr:    0.0000
     atom:   31    charge:   14.2873    magn:    1.5801    constr:    0.0000
     atom:   32    charge:   14.3911    magn:   -1.4884    constr:    0.0000

     total cpu time spent up to now is    15530.5 secs

     End of self-consistent calculation

     Number of k-points >= 100: set verbosity='high' to print the bands.

     the Fermi energy is    20.1761 ev

!    total energy              =  -10638.64930117 Ry

     total all-electron energy =    -87974.354024 Ry
     estimated scf accuracy    <          5.7E-09 Ry
     smearing contrib. (-TS)   =       0.01316363 Ry
     internal energy E=F+TS    =  -10638.66246480 Ry

     The total energy is F=E-TS. E is the sum of the following terms:
     one-electron contribution =   -3240.86744943 Ry
     hartree contribution      =    1972.18164706 Ry
     xc contribution           =    -888.27365923 Ry
     ewald contribution        =   -5677.77624550 Ry
     one-center paw contrib.   =   -2803.92675771 Ry

     total magnetization       =    -0.54 Bohr mag/cell
     absolute magnetization    =    49.15 Bohr mag/cell

     convergence has been achieved in  33 iterations

     Forces acting on atoms (cartesian axes, Ry/au):

     atom    1 type  1   force =     0.00000000    0.00000000    0.00000000
     atom    2 type  3   force =     0.00008145   -0.00010466    0.00000000
     atom    3 type  4   force =    -0.00002126    0.00000000   -0.00001731
     atom    4 type  5   force =     0.00000000   -0.00010398    0.00007840
     atom    5 type  2   force =     0.00000000    0.00000000    0.00000000
     atom    6 type  3   force =     0.00000225    0.00003347    0.00000000
     atom    7 type  4   force =    -0.00002126    0.00000000    0.00001731
     atom    8 type  5   force =     0.00000000   -0.00010398   -0.00007840
     atom    9 type  2   force =     0.00000000    0.00000000    0.00000000
     atom   10 type  3   force =     0.00008145    0.00010466    0.00000000
     atom   11 type  4   force =    -0.00002663    0.00000000   -0.00002692
     atom   12 type  5   force =     0.00000000    0.00010398    0.00007840
     atom   13 type  2   force =     0.00000000    0.00000000    0.00000000
     atom   14 type  3   force =     0.00000225   -0.00003347    0.00000000
     atom   15 type  4   force =    -0.00002663    0.00000000    0.00002692
     atom   16 type  5   force =     0.00000000    0.00010398   -0.00007840
     atom   17 type  2   force =     0.00000000    0.00000000    0.00000000
     atom   18 type  3   force =    -0.00008145   -0.00010466    0.00000000
     atom   19 type  4   force =     0.00002126    0.00000000   -0.00001731
     atom   20 type  5   force =     0.00000000    0.00003042    0.00000438
     atom   21 type  2   force =     0.00000000    0.00000000    0.00000000
     atom   22 type  3   force =    -0.00000225    0.00003347    0.00000000
     atom   23 type  4   force =     0.00002126    0.00000000    0.00001731
     atom   24 type  5   force =     0.00000000    0.00003042   -0.00000438
     atom   25 type  2   force =     0.00000000    0.00000000    0.00000000
     atom   26 type  3   force =    -0.00008145    0.00010466    0.00000000
     atom   27 type  4   force =     0.00002663    0.00000000   -0.00002692
     atom   28 type  5   force =     0.00000000   -0.00003042    0.00000438
     atom   29 type  2   force =     0.00000000    0.00000000    0.00000000
     atom   30 type  3   force =    -0.00000225   -0.00003347    0.00000000
     atom   31 type  4   force =     0.00002663    0.00000000    0.00002692
     atom   32 type  5   force =     0.00000000   -0.00003042   -0.00000438

     Total force =     0.000394     Total SCF correction =     0.000179
     SCF correction compared to forces is large: reduce conv_thr to get better values


     Computing stress (Cartesian axis) and pressure

          total   stress  (Ry/bohr**3)                   (kbar)     P=        0.21
   0.00000175   0.00000000   0.00000000            0.26        0.00        0.00
   0.00000000   0.00000095   0.00000000            0.00        0.14        0.00
   0.00000000   0.00000000   0.00000160            0.00        0.00        0.24


     Writing output data file /scratch/bxp912/feru1b.save/
 
     init_run     :    117.15s CPU    119.91s WALL (       2 calls)
     electrons    :  15026.96s CPU  15219.60s WALL (       2 calls)
     forces       :     68.49s CPU     69.03s WALL (       2 calls)
     stress       :    303.39s CPU    306.57s WALL (       2 calls)

     Called by init_run:
     wfcinit      :    114.34s CPU    116.96s WALL (       2 calls)
     potinit      :      0.93s CPU      0.97s WALL (       2 calls)
     hinit0       :      1.34s CPU      1.35s WALL (       2 calls)

     Called by electrons:
     c_bands      :  13414.60s CPU  13576.28s WALL (      72 calls)
     sum_band     :   1590.54s CPU   1619.89s WALL (      72 calls)
     v_of_rho     :      1.81s CPU      1.94s WALL (      74 calls)
     newd         :      5.86s CPU      6.57s WALL (      74 calls)
     PAW_pot      :     13.08s CPU     13.73s WALL (      74 calls)
     mix_rho      :      1.31s CPU      1.42s WALL (      72 calls)

     Called by c_bands:
     init_us_2    :     60.50s CPU     61.78s WALL (   37500 calls)
     cegterg      :  13197.65s CPU  13350.10s WALL (   18020 calls)

     Called by *egterg:
     cdiaghg      :   2094.67s CPU   2106.29s WALL (   89959 calls)
     h_psi        :   6888.47s CPU   7000.80s WALL (   90479 calls)
     s_psi        :    504.45s CPU    508.37s WALL (   90479 calls)
     g_psi        :     12.77s CPU     12.98s WALL (   71959 calls)

     Called by h_psi:
     h_psi:calbec :   1050.17s CPU   1057.73s WALL (   90479 calls)
     vloc_psi     :   5301.59s CPU   5397.98s WALL (   90479 calls)
     add_vuspsi   :    507.10s CPU    515.33s WALL (   90479 calls)

     General routines
     calbec       :   1571.95s CPU   1583.16s WALL (  110979 calls)
     fft          :      1.31s CPU      1.36s WALL (    1926 calls)
     ffts         :      0.63s CPU      0.65s WALL (    1748 calls)
     fftw         :   6240.45s CPU   6352.32s WALL (33395260 calls)
     interpolate  :      0.15s CPU      0.16s WALL (     148 calls)
 
     Parallel routines
     fft_scatt_xy :    265.82s CPU    270.80s WALL (33398934 calls)
     fft_scatt_yz :   5338.19s CPU   5435.80s WALL (33398934 calls)
 
     PWSCF        :      4h19m CPU      4h22m WALL

 
   This run was terminated on:   9:49:16  10Mar2022            

=------------------------------------------------------------------------------=
   JOB DONE.
=------------------------------------------------------------------------------=
