
     Program PWSCF v.6.7MaX starts on 10Mar2022 at  0:51:12 

     This program is part of the open-source Quantum ESPRESSO suite
     for quantum simulation of materials; please cite
         "P. Giannozzi et al., J. Phys.:Condens. Matter 21 395502 (2009);
         "P. Giannozzi et al., J. Phys.:Condens. Matter 29 465901 (2017);
          URL http://www.quantum-espresso.org", 
     in publications or presentations arising from this work. More details at
     http://www.quantum-espresso.org/quote

     Parallel version (MPI & OpenMP), running on      72 processor cores
     Number of MPI processes:                72
     Threads/MPI process:                     1

     MPI processes distributed on     1 nodes
     R & G space division:  proc/nbgrp/npool/nimage =      72
     Reading input from feru_1a.in

     Current dimensions of program PWSCF are:
     Max number of different atomic species (ntypx) = 10
     Max number of k-points (npk) =  40000
     Max angular momentum in pseudopotentials (lmaxx) =  3
     file Ru.pbe-spn-kjpaw_psl.1.0.0.UPF: wavefunction(s)  4D renormalized
     file Fe.pbe-spn-kjpaw_psl.1.0.0.UPF: wavefunction(s)  3P 3D renormalized
     file Fe.pbe-spn-kjpaw_psl.1.0.0.UPF: wavefunction(s)  3P 3D renormalized
     file Fe.pbe-spn-kjpaw_psl.1.0.0.UPF: wavefunction(s)  3P 3D renormalized
     file Fe.pbe-spn-kjpaw_psl.1.0.0.UPF: wavefunction(s)  3P 3D renormalized

     Subspace diagonalization in iterative solution of the eigenvalue problem:
     one sub-group per band group will be used
     ELPA distributed-memory algorithm (size of sub-group:  8*  8 procs)

     Message from routine setup:
     using ibrav=0 with symmetry is DISCOURAGED, use correct ibrav instead
 
     Parallelization info
     --------------------
     sticks:   dense  smooth     PW     G-vecs:    dense   smooth      PW
     Min          84      55     15                 4834     2593     373
     Max          85      56     16                 4839     2600     378
     Sum        6087    4017   1115               348163   187025   27031
 


     bravais-lattice index     =            0
     lattice parameter (alat)  =      12.9999  a.u.
     unit-cell volume          =    2313.3400 (a.u.)^3
     number of atoms/cell      =           32
     number of atomic types    =            5
     number of electrons       =       512.00
     number of Kohn-Sham states=          307
     kinetic-energy cutoff     =      71.0000  Ry
     charge density cutoff     =     430.0000  Ry
     scf convergence threshold =      1.0E-08
     mixing beta               =       0.3000
     number of iterations used =           10  plain     mixing
     energy convergence thresh.=      1.0E-04
     force convergence thresh. =      1.0E-03
     press convergence thresh. =      5.0E-01
     Exchange-correlation= SLA  PW   PBX  PBC
                           (   1   4   3   4   0   0   0)
     nstep                     =           40


     celldm(1)=  12.999899  celldm(2)=   0.000000  celldm(3)=   0.000000
     celldm(4)=   0.000000  celldm(5)=   0.000000  celldm(6)=   0.000000

     crystal axes: (cart. coord. in units of alat)
               a(1) = (   1.000000   0.000000   0.000000 )  
               a(2) = (   0.000000   1.052979   0.000000 )  
               a(3) = (   0.000000   0.000000   1.000000 )  

     reciprocal axes: (cart. coord. in units 2 pi/alat)
               b(1) = (  1.000000  0.000000  0.000000 )  
               b(2) = (  0.000000  0.949687  0.000000 )  
               b(3) = (  0.000000  0.000000  1.000000 )  


     PseudoPot. # 1 for Ru read from file:
     /rds/homes/b/bxp912/pp/Ru.pbe-spn-kjpaw_psl.1.0.0.UPF
     MD5 check sum: 0ae1f594dea09af7be8575c3a481d1ae
     Pseudo is Projector augmented-wave + core cor, Zval = 16.0
     Generated using "atomic" code by A. Dal Corso  v.5.1
     Shape of augmentation charge: PSQ
     Using radial grid of 1233 points,  6 beta functions with: 
                l(1) =   0
                l(2) =   0
                l(3) =   1
                l(4) =   1
                l(5) =   2
                l(6) =   2
     Q(r) pseudized with 0 coefficients 


     PseudoPot. # 2 for Fe read from file:
     /rds/homes/b/bxp912/pp/Fe.pbe-spn-kjpaw_psl.1.0.0.UPF
     MD5 check sum: 42f43b795421b414b0dc916aa790dbcb
     Pseudo is Projector augmented-wave + core cor, Zval = 16.0
     Generated using &quot;atomic&quot; code by A. Dal Corso  v.6.3
     Shape of augmentation charge: PSQ
     Using radial grid of 1191 points,  6 beta functions with: 
                l(1) =   0
                l(2) =   0
                l(3) =   1
                l(4) =   1
                l(5) =   2
                l(6) =   2
     Q(r) pseudized with 0 coefficients 


     PseudoPot. # 3 for Fe read from file:
     /rds/homes/b/bxp912/pp/Fe.pbe-spn-kjpaw_psl.1.0.0.UPF
     MD5 check sum: 42f43b795421b414b0dc916aa790dbcb
     Pseudo is Projector augmented-wave + core cor, Zval = 16.0
     Generated using &quot;atomic&quot; code by A. Dal Corso  v.6.3
     Shape of augmentation charge: PSQ
     Using radial grid of 1191 points,  6 beta functions with: 
                l(1) =   0
                l(2) =   0
                l(3) =   1
                l(4) =   1
                l(5) =   2
                l(6) =   2
     Q(r) pseudized with 0 coefficients 


     PseudoPot. # 4 for Fe read from file:
     /rds/homes/b/bxp912/pp/Fe.pbe-spn-kjpaw_psl.1.0.0.UPF
     MD5 check sum: 42f43b795421b414b0dc916aa790dbcb
     Pseudo is Projector augmented-wave + core cor, Zval = 16.0
     Generated using &quot;atomic&quot; code by A. Dal Corso  v.6.3
     Shape of augmentation charge: PSQ
     Using radial grid of 1191 points,  6 beta functions with: 
                l(1) =   0
                l(2) =   0
                l(3) =   1
                l(4) =   1
                l(5) =   2
                l(6) =   2
     Q(r) pseudized with 0 coefficients 


     PseudoPot. # 5 for Fe read from file:
     /rds/homes/b/bxp912/pp/Fe.pbe-spn-kjpaw_psl.1.0.0.UPF
     MD5 check sum: 42f43b795421b414b0dc916aa790dbcb
     Pseudo is Projector augmented-wave + core cor, Zval = 16.0
     Generated using &quot;atomic&quot; code by A. Dal Corso  v.6.3
     Shape of augmentation charge: PSQ
     Using radial grid of 1191 points,  6 beta functions with: 
                l(1) =   0
                l(2) =   0
                l(3) =   1
                l(4) =   1
                l(5) =   2
                l(6) =   2
     Q(r) pseudized with 0 coefficients 


     atomic species   valence    mass     pseudopotential
        Ru            16.00   101.07000     Ru( 1.00)
        Fe1           16.00    55.84500     Fe( 1.00)
        Fe2           16.00    55.84500     Fe( 1.00)
        Fe3           16.00    55.84500     Fe( 1.00)
        Fe4           16.00    55.84500     Fe( 1.00)

     Starting magnetic structure 
     atomic species   magnetization
        Ru          -0.080
        Fe1          1.000
        Fe2         -1.000
        Fe3          1.000
        Fe4         -1.000

      8 Sym. Ops., with inversion, found



   Cartesian axes

     site n.     atom                  positions (alat units)
         1           Ru  tau(   1) = (   0.0000000   0.0000000   0.0000000  )
         2           Fe2 tau(   2) = (   0.2523704   0.2660492   0.0000000  )
         3           Fe3 tau(   3) = (   0.2548849   0.0000000   0.2548842  )
         4           Fe4 tau(   4) = (   0.0000000   0.2660494   0.2523716  )
         5           Fe1 tau(   5) = (   0.0000000   0.0000000   0.5000000  )
         6           Fe2 tau(   6) = (   0.2504047   0.2639964   0.5000000  )
         7           Fe3 tau(   7) = (   0.2548849   0.0000000   0.7451148  )
         8           Fe4 tau(   8) = (   0.0000000   0.2660494   0.7476274  )
         9           Fe1 tau(   9) = (   0.0000000   0.5264894   0.0000000  )
        10           Fe2 tau(  10) = (   0.2523704   0.7869297   0.0000000  )
        11           Fe3 tau(  11) = (   0.2504147   0.5264894   0.2504153  )
        12           Fe4 tau(  12) = (   0.0000000   0.7869296   0.2523716  )
        13           Fe1 tau(  13) = (   0.0000000   0.5264894   0.5000000  )
        14           Fe2 tau(  14) = (   0.2504047   0.7889825   0.5000000  )
        15           Fe3 tau(  15) = (   0.2504147   0.5264894   0.7495847  )
        16           Fe4 tau(  16) = (   0.0000000   0.7869296   0.7476274  )
        17           Fe1 tau(  17) = (   0.4999998   0.0000000   0.0000000  )
        18           Fe2 tau(  18) = (   0.7476291   0.2660492   0.0000000  )
        19           Fe3 tau(  19) = (   0.7451147   0.0000000   0.2548842  )
        20           Fe4 tau(  20) = (   0.4999998   0.2639967   0.2504032  )
        21           Fe1 tau(  21) = (   0.4999998   0.0000000   0.5000000  )
        22           Fe2 tau(  22) = (   0.7495948   0.2639964   0.5000000  )
        23           Fe3 tau(  23) = (   0.7451147   0.0000000   0.7451148  )
        24           Fe4 tau(  24) = (   0.4999998   0.2639967   0.7495958  )
        25           Fe1 tau(  25) = (   0.4999998   0.5264894   0.0000000  )
        26           Fe2 tau(  26) = (   0.7476291   0.7869297   0.0000000  )
        27           Fe3 tau(  27) = (   0.7495849   0.5264894   0.2504153  )
        28           Fe4 tau(  28) = (   0.4999998   0.7889822   0.2504032  )
        29           Fe1 tau(  29) = (   0.4999998   0.5264894   0.5000000  )
        30           Fe2 tau(  30) = (   0.7495948   0.7889825   0.5000000  )
        31           Fe3 tau(  31) = (   0.7495849   0.5264894   0.7495847  )
        32           Fe4 tau(  32) = (   0.4999998   0.7889822   0.7495958  )

     number of k points=   125  Marzari-Vanderbilt smearing, width (Ry)=  0.0400

     Number of k-points >= 100: set verbosity='high' to print them.

     Dense  grid:   348163 G-vectors     FFT dimensions: (  90,  96,  90)

     Smooth grid:   187025 G-vectors     FFT dimensions: (  72,  75,  72)

     Estimated max dynamical RAM per process >     422.43 MB

     Estimated total dynamical RAM >      29.70 GB

     Check: negative core charge=   -0.000006
     Generating pointlists ...
     new r_m :   0.1487 (alat units)  1.9330 (a.u.) for type    1
     new r_m :   0.1430 (alat units)  1.8589 (a.u.) for type    2
     new r_m :   0.1453 (alat units)  1.8885 (a.u.) for type    3
     new r_m :   0.1430 (alat units)  1.8589 (a.u.) for type    4
     new r_m :   0.1453 (alat units)  1.8885 (a.u.) for type    5

     Initial potential from superposition of free atoms

     starting charge  511.98580, renormalised to  512.00000
     Starting wfcs are  320 randomized atomic wfcs
     Checking if some PAW data can be deallocated... 

     total cpu time spent up to now is       64.2 secs

     Self-consistent Calculation

     iteration #  1     ecut=    71.00 Ry     beta= 0.30
     Davidson diagonalization with overlap
     ethr =  1.00E-02,  avg # of iterations =  6.2

     negative rho (up, down):  2.770E+00 2.054E-01

     total cpu time spent up to now is      337.2 secs

     total energy              =  -10569.87014295 Ry
     estimated scf accuracy    <     276.09340799 Ry

     total magnetization       =    -2.08 Bohr mag/cell
     absolute magnetization    =   167.63 Bohr mag/cell

     iteration #  2     ecut=    71.00 Ry     beta= 0.30
     Davidson diagonalization with overlap
     ethr =  1.00E-02,  avg # of iterations =  3.8

     negative rho (up, down):  1.843E+00 1.336E-01

     total cpu time spent up to now is      531.8 secs

     total energy              =  -10591.28533539 Ry
     estimated scf accuracy    <     121.26288266 Ry

     total magnetization       =    -6.81 Bohr mag/cell
     absolute magnetization    =   131.67 Bohr mag/cell

     iteration #  3     ecut=    71.00 Ry     beta= 0.30
     Davidson diagonalization with overlap
     ethr =  1.00E-02,  avg # of iterations =  4.2

     negative rho (up, down):  1.459E+00 9.831E-02

     total cpu time spent up to now is      733.7 secs

     total energy              =  -10601.78513108 Ry
     estimated scf accuracy    <     180.77784597 Ry

     total magnetization       =    -6.79 Bohr mag/cell
     absolute magnetization    =   118.36 Bohr mag/cell

     iteration #  4     ecut=    71.00 Ry     beta= 0.30
     Davidson diagonalization with overlap
     ethr =  1.00E-02,  avg # of iterations =  2.2

     negative rho (up, down):  9.610E-01 5.674E-02

     total cpu time spent up to now is      906.6 secs

     total energy              =  -10618.65547522 Ry
     estimated scf accuracy    <      51.70136575 Ry

     total magnetization       =    -2.28 Bohr mag/cell
     absolute magnetization    =   122.59 Bohr mag/cell

     iteration #  5     ecut=    71.00 Ry     beta= 0.30
     Davidson diagonalization with overlap
     ethr =  1.00E-02,  avg # of iterations =  2.0

     negative rho (up, down):  2.035E-01 1.426E-02

     total cpu time spent up to now is     1077.2 secs

     total energy              =  -10626.33668355 Ry
     estimated scf accuracy    <      85.11062462 Ry

     total magnetization       =   -10.88 Bohr mag/cell
     absolute magnetization    =   109.24 Bohr mag/cell

     iteration #  6     ecut=    71.00 Ry     beta= 0.30
     Davidson diagonalization with overlap
     ethr =  1.00E-02,  avg # of iterations =  2.8

     negative rho (up, down):  1.748E-02 8.107E-03

     total cpu time spent up to now is     1259.5 secs

     total energy              =  -10630.84201281 Ry
     estimated scf accuracy    <     197.08819010 Ry

     total magnetization       =    -3.89 Bohr mag/cell
     absolute magnetization    =    79.93 Bohr mag/cell

     iteration #  7     ecut=    71.00 Ry     beta= 0.30
     Davidson diagonalization with overlap
     ethr =  1.00E-02,  avg # of iterations =  2.0

     negative rho (up, down):  2.327E-02 7.751E-03

     total cpu time spent up to now is     1424.1 secs

     total energy              =  -10636.85814614 Ry
     estimated scf accuracy    <      16.55087948 Ry

     total magnetization       =    -3.33 Bohr mag/cell
     absolute magnetization    =    74.24 Bohr mag/cell

     iteration #  8     ecut=    71.00 Ry     beta= 0.30
     Davidson diagonalization with overlap
     ethr =  3.23E-03,  avg # of iterations =  2.4

     negative rho (up, down):  3.454E-02 6.412E-03

     total cpu time spent up to now is     1594.3 secs

     total energy              =  -10637.57514245 Ry
     estimated scf accuracy    <       6.17811665 Ry

     total magnetization       =    -3.62 Bohr mag/cell
     absolute magnetization    =    72.42 Bohr mag/cell

     iteration #  9     ecut=    71.00 Ry     beta= 0.30
     Davidson diagonalization with overlap
     ethr =  1.21E-03,  avg # of iterations =  5.5

     negative rho (up, down):  3.949E-02 5.620E-03

     total cpu time spent up to now is     1786.6 secs

     total energy              =  -10637.54518834 Ry
     estimated scf accuracy    <      20.31636352 Ry

     total magnetization       =    -3.36 Bohr mag/cell
     absolute magnetization    =    64.91 Bohr mag/cell

     iteration # 10     ecut=    71.00 Ry     beta= 0.30
     Davidson diagonalization with overlap
     ethr =  1.21E-03,  avg # of iterations =  2.7

     negative rho (up, down):  3.348E-02 4.515E-03

     total cpu time spent up to now is     1954.4 secs

     total energy              =  -10638.31995573 Ry
     estimated scf accuracy    <       3.15258156 Ry

     total magnetization       =    -2.42 Bohr mag/cell
     absolute magnetization    =    63.25 Bohr mag/cell

     iteration # 11     ecut=    71.00 Ry     beta= 0.30
     Davidson diagonalization with overlap
     ethr =  6.16E-04,  avg # of iterations =  4.6

     negative rho (up, down):  1.974E-02 2.953E-03

     total cpu time spent up to now is     2134.5 secs

     total energy              =  -10638.35160718 Ry
     estimated scf accuracy    <       3.24035362 Ry

     total magnetization       =    -2.90 Bohr mag/cell
     absolute magnetization    =    60.28 Bohr mag/cell

     iteration # 12     ecut=    71.00 Ry     beta= 0.30
     Davidson diagonalization with overlap
     ethr =  6.16E-04,  avg # of iterations =  1.7

     negative rho (up, down):  6.727E-03 2.247E-03

     total cpu time spent up to now is     2292.8 secs

     total energy              =  -10638.51824284 Ry
     estimated scf accuracy    <       0.97703281 Ry

     total magnetization       =    -2.66 Bohr mag/cell
     absolute magnetization    =    55.95 Bohr mag/cell

     iteration # 13     ecut=    71.00 Ry     beta= 0.30
     Davidson diagonalization with overlap
     c_bands:  4 eigenvalues not converged
     ethr =  1.91E-04,  avg # of iterations =  5.3

     negative rho (up, down):  1.171E-03 8.580E-04

     total cpu time spent up to now is     2477.4 secs

     total energy              =  -10638.52581000 Ry
     estimated scf accuracy    <       1.31756715 Ry

     total magnetization       =    -1.99 Bohr mag/cell
     absolute magnetization    =    56.35 Bohr mag/cell

     iteration # 14     ecut=    71.00 Ry     beta= 0.30
     Davidson diagonalization with overlap
     ethr =  1.91E-04,  avg # of iterations =  2.0

     negative rho (up, down):  7.150E-04 4.911E-04

     total cpu time spent up to now is     2638.2 secs

     total energy              =  -10638.60207213 Ry
     estimated scf accuracy    <       1.96921874 Ry

     total magnetization       =    -1.55 Bohr mag/cell
     absolute magnetization    =    53.65 Bohr mag/cell

     iteration # 15     ecut=    71.00 Ry     beta= 0.30
     Davidson diagonalization with overlap
     ethr =  1.91E-04,  avg # of iterations =  1.6

     negative rho (up, down):  4.995E-04 2.311E-04

     total cpu time spent up to now is     2792.1 secs

     total energy              =  -10638.61715680 Ry
     estimated scf accuracy    <       0.67355361 Ry

     total magnetization       =    -2.07 Bohr mag/cell
     absolute magnetization    =    52.70 Bohr mag/cell

     iteration # 16     ecut=    71.00 Ry     beta= 0.30
     Davidson diagonalization with overlap
     ethr =  1.32E-04,  avg # of iterations =  1.8

     negative rho (up, down):  0.000E+00 6.899E-06

     total cpu time spent up to now is     2948.5 secs

     total energy              =  -10638.61712521 Ry
     estimated scf accuracy    <       0.58758317 Ry

     total magnetization       =    -1.83 Bohr mag/cell
     absolute magnetization    =    51.37 Bohr mag/cell

     iteration # 17     ecut=    71.00 Ry     beta= 0.30
     Davidson diagonalization with overlap
     ethr =  1.15E-04,  avg # of iterations =  1.5

     total cpu time spent up to now is     3101.5 secs

     total energy              =  -10638.63735272 Ry
     estimated scf accuracy    <       0.20716208 Ry

     total magnetization       =    -1.69 Bohr mag/cell
     absolute magnetization    =    51.73 Bohr mag/cell

     iteration # 18     ecut=    71.00 Ry     beta= 0.30
     Davidson diagonalization with overlap
     ethr =  4.05E-05,  avg # of iterations =  2.8

     total cpu time spent up to now is     3265.0 secs

     total energy              =  -10638.64316703 Ry
     estimated scf accuracy    <       0.03048741 Ry

     total magnetization       =    -1.50 Bohr mag/cell
     absolute magnetization    =    51.31 Bohr mag/cell

     iteration # 19     ecut=    71.00 Ry     beta= 0.30
     Davidson diagonalization with overlap
     c_bands:  1 eigenvalues not converged
     c_bands:  2 eigenvalues not converged
     c_bands:  1 eigenvalues not converged
     c_bands:  1 eigenvalues not converged
     c_bands:  1 eigenvalues not converged
     c_bands:  1 eigenvalues not converged
     c_bands:  1 eigenvalues not converged
     c_bands:  3 eigenvalues not converged
     c_bands:  2 eigenvalues not converged
     c_bands:  1 eigenvalues not converged
     c_bands:  1 eigenvalues not converged
     c_bands:  1 eigenvalues not converged
     ethr =  5.95E-06,  avg # of iterations =  7.4

     total cpu time spent up to now is     3459.3 secs

     total energy              =  -10638.64429677 Ry
     estimated scf accuracy    <       0.03101645 Ry

     total magnetization       =    -1.65 Bohr mag/cell
     absolute magnetization    =    50.82 Bohr mag/cell

     iteration # 20     ecut=    71.00 Ry     beta= 0.30
     Davidson diagonalization with overlap
     c_bands:  1 eigenvalues not converged
     ethr =  5.95E-06,  avg # of iterations =  1.5

     total cpu time spent up to now is     3613.0 secs

     total energy              =  -10638.64596172 Ry
     estimated scf accuracy    <       0.01436005 Ry

     total magnetization       =    -1.44 Bohr mag/cell
     absolute magnetization    =    50.53 Bohr mag/cell

     iteration # 21     ecut=    71.00 Ry     beta= 0.30
     Davidson diagonalization with overlap
     c_bands:  1 eigenvalues not converged
     c_bands:  1 eigenvalues not converged
     c_bands:  1 eigenvalues not converged
     ethr =  2.80E-06,  avg # of iterations =  2.6

     total cpu time spent up to now is     3777.5 secs

     total energy              =  -10638.64665746 Ry
     estimated scf accuracy    <       0.01028723 Ry

     total magnetization       =    -1.28 Bohr mag/cell
     absolute magnetization    =    50.44 Bohr mag/cell

     iteration # 22     ecut=    71.00 Ry     beta= 0.30
     Davidson diagonalization with overlap
     c_bands:  1 eigenvalues not converged
     c_bands:  1 eigenvalues not converged
     ethr =  2.01E-06,  avg # of iterations =  1.8

     total cpu time spent up to now is     3932.6 secs

     total energy              =  -10638.64735455 Ry
     estimated scf accuracy    <       0.00512938 Ry

     total magnetization       =    -1.39 Bohr mag/cell
     absolute magnetization    =    50.32 Bohr mag/cell

     iteration # 23     ecut=    71.00 Ry     beta= 0.30
     Davidson diagonalization with overlap
     c_bands:  1 eigenvalues not converged
     ethr =  1.00E-06,  avg # of iterations =  2.1

     total cpu time spent up to now is     4099.3 secs

     total energy              =  -10638.64752318 Ry
     estimated scf accuracy    <       0.01959834 Ry

     total magnetization       =    -1.27 Bohr mag/cell
     absolute magnetization    =    50.09 Bohr mag/cell

     iteration # 24     ecut=    71.00 Ry     beta= 0.30
     Davidson diagonalization with overlap
     c_bands:  1 eigenvalues not converged
     ethr =  1.00E-06,  avg # of iterations =  2.1

     total cpu time spent up to now is     4264.7 secs

     total energy              =  -10638.64842364 Ry
     estimated scf accuracy    <       0.00271572 Ry

     total magnetization       =    -1.19 Bohr mag/cell
     absolute magnetization    =    49.66 Bohr mag/cell

     iteration # 25     ecut=    71.00 Ry     beta= 0.30
     Davidson diagonalization with overlap
     ethr =  5.30E-07,  avg # of iterations =  2.0

     total cpu time spent up to now is     4430.5 secs

     total energy              =  -10638.64843548 Ry
     estimated scf accuracy    <       0.00531183 Ry

     total magnetization       =    -1.09 Bohr mag/cell
     absolute magnetization    =    49.58 Bohr mag/cell

     iteration # 26     ecut=    71.00 Ry     beta= 0.30
     Davidson diagonalization with overlap
     ethr =  5.30E-07,  avg # of iterations =  1.1

     total cpu time spent up to now is     4580.2 secs

     total energy              =  -10638.64854178 Ry
     estimated scf accuracy    <       0.00287328 Ry

     total magnetization       =    -1.09 Bohr mag/cell
     absolute magnetization    =    49.55 Bohr mag/cell

     iteration # 27     ecut=    71.00 Ry     beta= 0.30
     Davidson diagonalization with overlap
     ethr =  5.30E-07,  avg # of iterations =  2.0

     total cpu time spent up to now is     4746.3 secs

     total energy              =  -10638.64828186 Ry
     estimated scf accuracy    <       0.01509549 Ry

     total magnetization       =    -1.12 Bohr mag/cell
     absolute magnetization    =    49.51 Bohr mag/cell

     iteration # 28     ecut=    71.00 Ry     beta= 0.30
     Davidson diagonalization with overlap
     ethr =  5.30E-07,  avg # of iterations =  1.2

     total cpu time spent up to now is     4898.4 secs

     total energy              =  -10638.64882377 Ry
     estimated scf accuracy    <       0.00146253 Ry

     total magnetization       =    -1.00 Bohr mag/cell
     absolute magnetization    =    49.31 Bohr mag/cell

     iteration # 29     ecut=    71.00 Ry     beta= 0.30
     Davidson diagonalization with overlap
     ethr =  2.86E-07,  avg # of iterations =  1.3

     total cpu time spent up to now is     5053.1 secs

     total energy              =  -10638.64889642 Ry
     estimated scf accuracy    <       0.00105341 Ry

     total magnetization       =    -0.98 Bohr mag/cell
     absolute magnetization    =    49.31 Bohr mag/cell

     iteration # 30     ecut=    71.00 Ry     beta= 0.30
     Davidson diagonalization with overlap
     ethr =  2.06E-07,  avg # of iterations =  1.2

     total cpu time spent up to now is     5203.7 secs

     total energy              =  -10638.64892663 Ry
     estimated scf accuracy    <       0.00135789 Ry

     total magnetization       =    -0.95 Bohr mag/cell
     absolute magnetization    =    49.26 Bohr mag/cell

     iteration # 31     ecut=    71.00 Ry     beta= 0.30
     Davidson diagonalization with overlap
     ethr =  2.06E-07,  avg # of iterations =  1.5

     total cpu time spent up to now is     5361.0 secs

     total energy              =  -10638.64899724 Ry
     estimated scf accuracy    <       0.00144096 Ry

     total magnetization       =    -0.92 Bohr mag/cell
     absolute magnetization    =    49.14 Bohr mag/cell

     iteration # 32     ecut=    71.00 Ry     beta= 0.30
     Davidson diagonalization with overlap
     c_bands:  1 eigenvalues not converged
     ethr =  2.06E-07,  avg # of iterations =  1.2

     total cpu time spent up to now is     5512.5 secs

     total energy              =  -10638.64902626 Ry
     estimated scf accuracy    <       0.00123243 Ry

     total magnetization       =    -0.82 Bohr mag/cell
     absolute magnetization    =    49.10 Bohr mag/cell

     iteration # 33     ecut=    71.00 Ry     beta= 0.30
     Davidson diagonalization with overlap
     ethr =  2.06E-07,  avg # of iterations =  1.0

     total cpu time spent up to now is     5660.8 secs

     total energy              =  -10638.64906568 Ry
     estimated scf accuracy    <       0.00041716 Ry

     total magnetization       =    -0.82 Bohr mag/cell
     absolute magnetization    =    49.10 Bohr mag/cell

     iteration # 34     ecut=    71.00 Ry     beta= 0.30
     Davidson diagonalization with overlap
     ethr =  8.15E-08,  avg # of iterations =  1.1

     total cpu time spent up to now is     5811.1 secs

     total energy              =  -10638.64911374 Ry
     estimated scf accuracy    <       0.00034880 Ry

     total magnetization       =    -0.84 Bohr mag/cell
     absolute magnetization    =    49.08 Bohr mag/cell

     iteration # 35     ecut=    71.00 Ry     beta= 0.30
     Davidson diagonalization with overlap
     ethr =  6.81E-08,  avg # of iterations =  1.5

     total cpu time spent up to now is     5967.4 secs

     total energy              =  -10638.64910760 Ry
     estimated scf accuracy    <       0.00088515 Ry

     total magnetization       =    -0.76 Bohr mag/cell
     absolute magnetization    =    49.05 Bohr mag/cell

     iteration # 36     ecut=    71.00 Ry     beta= 0.30
     Davidson diagonalization with overlap
     ethr =  6.81E-08,  avg # of iterations =  1.1

     total cpu time spent up to now is     6117.8 secs

     total energy              =  -10638.64915267 Ry
     estimated scf accuracy    <       0.00012708 Ry

     total magnetization       =    -0.75 Bohr mag/cell
     absolute magnetization    =    49.02 Bohr mag/cell

     iteration # 37     ecut=    71.00 Ry     beta= 0.30
     Davidson diagonalization with overlap
     ethr =  2.48E-08,  avg # of iterations =  1.9

     total cpu time spent up to now is     6280.6 secs

     total energy              =  -10638.64916847 Ry
     estimated scf accuracy    <       0.00020334 Ry

     total magnetization       =    -0.72 Bohr mag/cell
     absolute magnetization    =    49.00 Bohr mag/cell

     iteration # 38     ecut=    71.00 Ry     beta= 0.30
     Davidson diagonalization with overlap
     ethr =  2.48E-08,  avg # of iterations =  1.3

     total cpu time spent up to now is     6432.9 secs

     total energy              =  -10638.64920291 Ry
     estimated scf accuracy    <       0.00030197 Ry

     total magnetization       =    -0.70 Bohr mag/cell
     absolute magnetization    =    49.01 Bohr mag/cell

     iteration # 39     ecut=    71.00 Ry     beta= 0.30
     Davidson diagonalization with overlap
     ethr =  2.48E-08,  avg # of iterations =  2.3

     total cpu time spent up to now is     6600.7 secs

     total energy              =  -10638.64919632 Ry
     estimated scf accuracy    <       0.00023204 Ry

     total magnetization       =    -0.64 Bohr mag/cell
     absolute magnetization    =    49.06 Bohr mag/cell

     iteration # 40     ecut=    71.00 Ry     beta= 0.30
     Davidson diagonalization with overlap
     ethr =  2.48E-08,  avg # of iterations =  2.0

     total cpu time spent up to now is     6767.7 secs

     total energy              =  -10638.64920797 Ry
     estimated scf accuracy    <       0.00018127 Ry

     total magnetization       =    -0.62 Bohr mag/cell
     absolute magnetization    =    48.99 Bohr mag/cell

     iteration # 41     ecut=    71.00 Ry     beta= 0.30
     Davidson diagonalization with overlap
     ethr =  2.48E-08,  avg # of iterations =  1.2

     total cpu time spent up to now is     6918.7 secs

     total energy              =  -10638.64922563 Ry
     estimated scf accuracy    <       0.00029607 Ry

     total magnetization       =    -0.64 Bohr mag/cell
     absolute magnetization    =    48.99 Bohr mag/cell

     iteration # 42     ecut=    71.00 Ry     beta= 0.30
     Davidson diagonalization with overlap
     ethr =  2.48E-08,  avg # of iterations =  1.6

     total cpu time spent up to now is     7076.0 secs

     total energy              =  -10638.64923958 Ry
     estimated scf accuracy    <       0.00031802 Ry

     total magnetization       =    -0.60 Bohr mag/cell
     absolute magnetization    =    49.02 Bohr mag/cell

     iteration # 43     ecut=    71.00 Ry     beta= 0.30
     Davidson diagonalization with overlap
     ethr =  2.48E-08,  avg # of iterations =  1.9

     total cpu time spent up to now is     7241.0 secs

     total energy              =  -10638.64925626 Ry
     estimated scf accuracy    <       0.00013702 Ry

     total magnetization       =    -0.57 Bohr mag/cell
     absolute magnetization    =    49.03 Bohr mag/cell

     iteration # 44     ecut=    71.00 Ry     beta= 0.30
     Davidson diagonalization with overlap
     ethr =  2.48E-08,  avg # of iterations =  1.0

     total cpu time spent up to now is     7389.0 secs

     total energy              =  -10638.64925561 Ry
     estimated scf accuracy    <       0.00005200 Ry

     total magnetization       =    -0.56 Bohr mag/cell
     absolute magnetization    =    49.05 Bohr mag/cell

     iteration # 45     ecut=    71.00 Ry     beta= 0.30
     Davidson diagonalization with overlap
     ethr =  1.02E-08,  avg # of iterations =  1.4

     total cpu time spent up to now is     7544.3 secs

     total energy              =  -10638.64926139 Ry
     estimated scf accuracy    <       0.00009458 Ry

     total magnetization       =    -0.56 Bohr mag/cell
     absolute magnetization    =    49.04 Bohr mag/cell

     iteration # 46     ecut=    71.00 Ry     beta= 0.30
     Davidson diagonalization with overlap
     ethr =  1.02E-08,  avg # of iterations =  1.2

     total cpu time spent up to now is     7694.8 secs

     total energy              =  -10638.64926492 Ry
     estimated scf accuracy    <       0.00009381 Ry

     total magnetization       =    -0.57 Bohr mag/cell
     absolute magnetization    =    49.06 Bohr mag/cell

     iteration # 47     ecut=    71.00 Ry     beta= 0.30
     Davidson diagonalization with overlap
     ethr =  1.02E-08,  avg # of iterations =  2.3

     total cpu time spent up to now is     7879.3 secs

     total energy              =  -10638.64927129 Ry
     estimated scf accuracy    <       0.00004593 Ry

     total magnetization       =    -0.54 Bohr mag/cell
     absolute magnetization    =    49.11 Bohr mag/cell

     iteration # 48     ecut=    71.00 Ry     beta= 0.30
     Davidson diagonalization with overlap
     ethr =  8.97E-09,  avg # of iterations =  1.1

     total cpu time spent up to now is     8056.7 secs

     total energy              =  -10638.64927705 Ry
     estimated scf accuracy    <       0.00004947 Ry

     total magnetization       =    -0.53 Bohr mag/cell
     absolute magnetization    =    49.08 Bohr mag/cell

     iteration # 49     ecut=    71.00 Ry     beta= 0.30
     Davidson diagonalization with overlap
     ethr =  8.97E-09,  avg # of iterations =  1.1

     total cpu time spent up to now is     8226.5 secs

     total energy              =  -10638.64928284 Ry
     estimated scf accuracy    <       0.00005135 Ry

     total magnetization       =    -0.52 Bohr mag/cell
     absolute magnetization    =    49.09 Bohr mag/cell

     iteration # 50     ecut=    71.00 Ry     beta= 0.30
     Davidson diagonalization with overlap
     ethr =  8.97E-09,  avg # of iterations =  1.5

     total cpu time spent up to now is     8383.0 secs

     total energy              =  -10638.64928539 Ry
     estimated scf accuracy    <       0.00006091 Ry

     total magnetization       =    -0.52 Bohr mag/cell
     absolute magnetization    =    49.12 Bohr mag/cell

     iteration # 51     ecut=    71.00 Ry     beta= 0.30
     Davidson diagonalization with overlap
     ethr =  8.97E-09,  avg # of iterations =  2.0

     total cpu time spent up to now is     8555.9 secs

     total energy              =  -10638.64928738 Ry
     estimated scf accuracy    <       0.00001140 Ry

     total magnetization       =    -0.50 Bohr mag/cell
     absolute magnetization    =    49.14 Bohr mag/cell

     iteration # 52     ecut=    71.00 Ry     beta= 0.30
     Davidson diagonalization with overlap
     ethr =  2.23E-09,  avg # of iterations =  2.2

     total cpu time spent up to now is     8723.6 secs

     total energy              =  -10638.64928813 Ry
     estimated scf accuracy    <       0.00004409 Ry

     total magnetization       =    -0.51 Bohr mag/cell
     absolute magnetization    =    49.14 Bohr mag/cell

     iteration # 53     ecut=    71.00 Ry     beta= 0.30
     Davidson diagonalization with overlap
     ethr =  2.23E-09,  avg # of iterations =  2.2

     total cpu time spent up to now is     8894.6 secs

     total energy              =  -10638.64928689 Ry
     estimated scf accuracy    <       0.00010902 Ry

     total magnetization       =    -0.51 Bohr mag/cell
     absolute magnetization    =    49.14 Bohr mag/cell

     iteration # 54     ecut=    71.00 Ry     beta= 0.30
     Davidson diagonalization with overlap
     ethr =  2.23E-09,  avg # of iterations =  2.8

     total cpu time spent up to now is     9072.1 secs

     total energy              =  -10638.64929355 Ry
     estimated scf accuracy    <       0.00002287 Ry

     total magnetization       =    -0.50 Bohr mag/cell
     absolute magnetization    =    49.16 Bohr mag/cell

     iteration # 55     ecut=    71.00 Ry     beta= 0.30
     Davidson diagonalization with overlap
     ethr =  2.23E-09,  avg # of iterations =  1.6

     total cpu time spent up to now is     9230.3 secs

     total energy              =  -10638.64929307 Ry
     estimated scf accuracy    <       0.00000847 Ry

     total magnetization       =    -0.51 Bohr mag/cell
     absolute magnetization    =    49.17 Bohr mag/cell

     iteration # 56     ecut=    71.00 Ry     beta= 0.30
     Davidson diagonalization with overlap
     ethr =  1.66E-09,  avg # of iterations =  1.1

     total cpu time spent up to now is     9379.6 secs

     total energy              =  -10638.64929416 Ry
     estimated scf accuracy    <       0.00000789 Ry

     total magnetization       =    -0.50 Bohr mag/cell
     absolute magnetization    =    49.16 Bohr mag/cell

     iteration # 57     ecut=    71.00 Ry     beta= 0.30
     Davidson diagonalization with overlap
     ethr =  1.54E-09,  avg # of iterations =  1.7

     total cpu time spent up to now is     9539.5 secs

     total energy              =  -10638.64929455 Ry
     estimated scf accuracy    <       0.00003558 Ry

     total magnetization       =    -0.51 Bohr mag/cell
     absolute magnetization    =    49.16 Bohr mag/cell

     iteration # 58     ecut=    71.00 Ry     beta= 0.30
     Davidson diagonalization with overlap
     ethr =  1.54E-09,  avg # of iterations =  2.0

     total cpu time spent up to now is     9705.3 secs

     total energy              =  -10638.64929649 Ry
     estimated scf accuracy    <       0.00000921 Ry

     total magnetization       =    -0.51 Bohr mag/cell
     absolute magnetization    =    49.16 Bohr mag/cell

     iteration # 59     ecut=    71.00 Ry     beta= 0.30
     Davidson diagonalization with overlap
     ethr =  1.54E-09,  avg # of iterations =  1.6

     total cpu time spent up to now is     9862.7 secs

     total energy              =  -10638.64929736 Ry
     estimated scf accuracy    <       0.00000204 Ry

     total magnetization       =    -0.51 Bohr mag/cell
     absolute magnetization    =    49.17 Bohr mag/cell

     iteration # 60     ecut=    71.00 Ry     beta= 0.30
     Davidson diagonalization with overlap
     ethr =  3.99E-10,  avg # of iterations =  2.2

     total cpu time spent up to now is    10032.2 secs

     total energy              =  -10638.64929781 Ry
     estimated scf accuracy    <       0.00000383 Ry

     total magnetization       =    -0.51 Bohr mag/cell
     absolute magnetization    =    49.17 Bohr mag/cell

     iteration # 61     ecut=    71.00 Ry     beta= 0.30
     Davidson diagonalization with overlap
     ethr =  3.99E-10,  avg # of iterations =  2.1

     total cpu time spent up to now is    10202.4 secs

     total energy              =  -10638.64929813 Ry
     estimated scf accuracy    <       0.00000524 Ry

     total magnetization       =    -0.51 Bohr mag/cell
     absolute magnetization    =    49.17 Bohr mag/cell

     iteration # 62     ecut=    71.00 Ry     beta= 0.30
     Davidson diagonalization with overlap
     ethr =  3.99E-10,  avg # of iterations =  1.8

     total cpu time spent up to now is    10364.4 secs

     total energy              =  -10638.64929820 Ry
     estimated scf accuracy    <       0.00000441 Ry

     total magnetization       =    -0.52 Bohr mag/cell
     absolute magnetization    =    49.16 Bohr mag/cell

     iteration # 63     ecut=    71.00 Ry     beta= 0.30
     Davidson diagonalization with overlap
     ethr =  3.99E-10,  avg # of iterations =  2.0

     total cpu time spent up to now is    10531.5 secs

     total energy              =  -10638.64929843 Ry
     estimated scf accuracy    <       0.00000550 Ry

     total magnetization       =    -0.52 Bohr mag/cell
     absolute magnetization    =    49.17 Bohr mag/cell

     iteration # 64     ecut=    71.00 Ry     beta= 0.30
     Davidson diagonalization with overlap
     ethr =  3.99E-10,  avg # of iterations =  1.4

     total cpu time spent up to now is    10686.2 secs

     total energy              =  -10638.64929873 Ry
     estimated scf accuracy    <       0.00000496 Ry

     total magnetization       =    -0.52 Bohr mag/cell
     absolute magnetization    =    49.17 Bohr mag/cell

     iteration # 65     ecut=    71.00 Ry     beta= 0.30
     Davidson diagonalization with overlap
     ethr =  3.99E-10,  avg # of iterations =  1.3

     total cpu time spent up to now is    10839.5 secs

     total energy              =  -10638.64929888 Ry
     estimated scf accuracy    <       0.00000447 Ry

     total magnetization       =    -0.52 Bohr mag/cell
     absolute magnetization    =    49.17 Bohr mag/cell

     iteration # 66     ecut=    71.00 Ry     beta= 0.30
     Davidson diagonalization with overlap
     ethr =  3.99E-10,  avg # of iterations =  1.0

     total cpu time spent up to now is    10987.0 secs

     total energy              =  -10638.64929897 Ry
     estimated scf accuracy    <       0.00000229 Ry

     total magnetization       =    -0.52 Bohr mag/cell
     absolute magnetization    =    49.17 Bohr mag/cell

     iteration # 67     ecut=    71.00 Ry     beta= 0.30
     Davidson diagonalization with overlap
     ethr =  3.99E-10,  avg # of iterations =  2.1

     total cpu time spent up to now is    11160.4 secs

     total energy              =  -10638.64929973 Ry
     estimated scf accuracy    <       0.00000089 Ry

     total magnetization       =    -0.53 Bohr mag/cell
     absolute magnetization    =    49.16 Bohr mag/cell

     iteration # 68     ecut=    71.00 Ry     beta= 0.30
     Davidson diagonalization with overlap
     ethr =  1.74E-10,  avg # of iterations =  2.1

     total cpu time spent up to now is    11327.7 secs

     total energy              =  -10638.64929988 Ry
     estimated scf accuracy    <       0.00000129 Ry

     total magnetization       =    -0.53 Bohr mag/cell
     absolute magnetization    =    49.16 Bohr mag/cell

     iteration # 69     ecut=    71.00 Ry     beta= 0.30
     Davidson diagonalization with overlap
     ethr =  1.74E-10,  avg # of iterations =  3.2

     total cpu time spent up to now is    11511.4 secs

     total energy              =  -10638.64930018 Ry
     estimated scf accuracy    <       0.00000199 Ry

     total magnetization       =    -0.53 Bohr mag/cell
     absolute magnetization    =    49.16 Bohr mag/cell

     iteration # 70     ecut=    71.00 Ry     beta= 0.30
     Davidson diagonalization with overlap
     ethr =  1.74E-10,  avg # of iterations =  1.7

     total cpu time spent up to now is    11670.3 secs

     total energy              =  -10638.64930009 Ry
     estimated scf accuracy    <       0.00000078 Ry

     total magnetization       =    -0.53 Bohr mag/cell
     absolute magnetization    =    49.16 Bohr mag/cell

     iteration # 71     ecut=    71.00 Ry     beta= 0.30
     Davidson diagonalization with overlap
     ethr =  1.52E-10,  avg # of iterations =  2.1

     total cpu time spent up to now is    11837.5 secs

     total energy              =  -10638.64930007 Ry
     estimated scf accuracy    <       0.00000454 Ry

     total magnetization       =    -0.53 Bohr mag/cell
     absolute magnetization    =    49.16 Bohr mag/cell

     iteration # 72     ecut=    71.00 Ry     beta= 0.30
     Davidson diagonalization with overlap
     ethr =  1.52E-10,  avg # of iterations =  2.3

     total cpu time spent up to now is    12013.7 secs

     total energy              =  -10638.64930043 Ry
     estimated scf accuracy    <       0.00000180 Ry

     total magnetization       =    -0.53 Bohr mag/cell
     absolute magnetization    =    49.16 Bohr mag/cell

     iteration # 73     ecut=    71.00 Ry     beta= 0.30
     Davidson diagonalization with overlap
     ethr =  1.52E-10,  avg # of iterations =  2.9

     total cpu time spent up to now is    12192.7 secs

     total energy              =  -10638.64930071 Ry
     estimated scf accuracy    <       0.00000033 Ry

     total magnetization       =    -0.53 Bohr mag/cell
     absolute magnetization    =    49.16 Bohr mag/cell

     iteration # 74     ecut=    71.00 Ry     beta= 0.30
     Davidson diagonalization with overlap
     ethr =  6.51E-11,  avg # of iterations =  3.6

     total cpu time spent up to now is    12374.5 secs

     total energy              =  -10638.64930074 Ry
     estimated scf accuracy    <       0.00000106 Ry

     total magnetization       =    -0.54 Bohr mag/cell
     absolute magnetization    =    49.16 Bohr mag/cell

     iteration # 75     ecut=    71.00 Ry     beta= 0.30
     Davidson diagonalization with overlap
     ethr =  6.51E-11,  avg # of iterations =  1.2

     total cpu time spent up to now is    12525.6 secs

     total energy              =  -10638.64930076 Ry
     estimated scf accuracy    <       0.00000066 Ry

     total magnetization       =    -0.54 Bohr mag/cell
     absolute magnetization    =    49.16 Bohr mag/cell

     iteration # 76     ecut=    71.00 Ry     beta= 0.30
     Davidson diagonalization with overlap
     ethr =  6.51E-11,  avg # of iterations =  1.7

     total cpu time spent up to now is    12685.2 secs

     total energy              =  -10638.64930080 Ry
     estimated scf accuracy    <       0.00000096 Ry

     total magnetization       =    -0.54 Bohr mag/cell
     absolute magnetization    =    49.16 Bohr mag/cell

     iteration # 77     ecut=    71.00 Ry     beta= 0.30
     Davidson diagonalization with overlap
     ethr =  6.51E-11,  avg # of iterations =  1.2

     total cpu time spent up to now is    12836.9 secs

     total energy              =  -10638.64930080 Ry
     estimated scf accuracy    <       0.00000035 Ry

     total magnetization       =    -0.54 Bohr mag/cell
     absolute magnetization    =    49.16 Bohr mag/cell

     iteration # 78     ecut=    71.00 Ry     beta= 0.30
     Davidson diagonalization with overlap
     ethr =  6.51E-11,  avg # of iterations =  1.5

     total cpu time spent up to now is    12993.2 secs

     total energy              =  -10638.64930070 Ry
     estimated scf accuracy    <       0.00000153 Ry

     total magnetization       =    -0.53 Bohr mag/cell
     absolute magnetization    =    49.16 Bohr mag/cell

     iteration # 79     ecut=    71.00 Ry     beta= 0.30
     Davidson diagonalization with overlap
     ethr =  6.51E-11,  avg # of iterations =  2.3

     total cpu time spent up to now is    13170.0 secs

     total energy              =  -10638.64930088 Ry
     estimated scf accuracy    <       0.00000020 Ry

     total magnetization       =    -0.54 Bohr mag/cell
     absolute magnetization    =    49.16 Bohr mag/cell

     iteration # 80     ecut=    71.00 Ry     beta= 0.30
     Davidson diagonalization with overlap
     ethr =  3.87E-11,  avg # of iterations =  1.1

     total cpu time spent up to now is    13318.8 secs

     total energy              =  -10638.64930086 Ry
     estimated scf accuracy    <       0.00000034 Ry

     total magnetization       =    -0.54 Bohr mag/cell
     absolute magnetization    =    49.16 Bohr mag/cell

     iteration # 81     ecut=    71.00 Ry     beta= 0.30
     Davidson diagonalization with overlap
     ethr =  3.87E-11,  avg # of iterations =  2.2

     total cpu time spent up to now is    13492.1 secs

     total energy              =  -10638.64930091 Ry
     estimated scf accuracy    <       0.00000034 Ry

     total magnetization       =    -0.54 Bohr mag/cell
     absolute magnetization    =    49.15 Bohr mag/cell

     iteration # 82     ecut=    71.00 Ry     beta= 0.30
     Davidson diagonalization with overlap
     ethr =  3.87E-11,  avg # of iterations =  1.0

     total cpu time spent up to now is    13640.1 secs

     total energy              =  -10638.64930092 Ry
     estimated scf accuracy    <       0.00000030 Ry

     total magnetization       =    -0.54 Bohr mag/cell
     absolute magnetization    =    49.16 Bohr mag/cell

     iteration # 83     ecut=    71.00 Ry     beta= 0.30
     Davidson diagonalization with overlap
     ethr =  3.87E-11,  avg # of iterations =  2.0

     total cpu time spent up to now is    13806.2 secs

     total energy              =  -10638.64930097 Ry
     estimated scf accuracy    <       0.00000033 Ry

     total magnetization       =    -0.54 Bohr mag/cell
     absolute magnetization    =    49.15 Bohr mag/cell

     iteration # 84     ecut=    71.00 Ry     beta= 0.30
     Davidson diagonalization with overlap
     ethr =  3.87E-11,  avg # of iterations =  1.5

     total cpu time spent up to now is    13963.3 secs

     total energy              =  -10638.64930090 Ry
     estimated scf accuracy    <       0.00000020 Ry

     total magnetization       =    -0.54 Bohr mag/cell
     absolute magnetization    =    49.15 Bohr mag/cell

     iteration # 85     ecut=    71.00 Ry     beta= 0.30
     Davidson diagonalization with overlap
     ethr =  3.87E-11,  avg # of iterations =  2.0

     total cpu time spent up to now is    14127.5 secs

     total energy              =  -10638.64930093 Ry
     estimated scf accuracy    <       0.00000022 Ry

     total magnetization       =    -0.54 Bohr mag/cell
     absolute magnetization    =    49.16 Bohr mag/cell

     iteration # 86     ecut=    71.00 Ry     beta= 0.30
     Davidson diagonalization with overlap
     ethr =  3.87E-11,  avg # of iterations =  2.1

     total cpu time spent up to now is    14295.5 secs

     total energy              =  -10638.64930101 Ry
     estimated scf accuracy    <       0.00000023 Ry

     total magnetization       =    -0.54 Bohr mag/cell
     absolute magnetization    =    49.15 Bohr mag/cell

     iteration # 87     ecut=    71.00 Ry     beta= 0.30
     Davidson diagonalization with overlap
     ethr =  3.87E-11,  avg # of iterations =  1.8

     total cpu time spent up to now is    14458.9 secs

     total energy              =  -10638.64930101 Ry
     estimated scf accuracy    <       0.00000068 Ry

     total magnetization       =    -0.54 Bohr mag/cell
     absolute magnetization    =    49.15 Bohr mag/cell

     iteration # 88     ecut=    71.00 Ry     beta= 0.30
     Davidson diagonalization with overlap
     ethr =  3.87E-11,  avg # of iterations =  1.7

     total cpu time spent up to now is    14618.5 secs

     total energy              =  -10638.64930096 Ry
     estimated scf accuracy    <       0.00000032 Ry

     total magnetization       =    -0.54 Bohr mag/cell
     absolute magnetization    =    49.15 Bohr mag/cell

     iteration # 89     ecut=    71.00 Ry     beta= 0.30
     Davidson diagonalization with overlap
     ethr =  3.87E-11,  avg # of iterations =  2.0

     total cpu time spent up to now is    14784.7 secs

     total energy              =  -10638.64930093 Ry
     estimated scf accuracy    <       0.00000039 Ry

     total magnetization       =    -0.54 Bohr mag/cell
     absolute magnetization    =    49.15 Bohr mag/cell

     iteration # 90     ecut=    71.00 Ry     beta= 0.30
     Davidson diagonalization with overlap
     ethr =  3.87E-11,  avg # of iterations =  2.4

     total cpu time spent up to now is    14962.3 secs

     total energy              =  -10638.64930096 Ry
     estimated scf accuracy    <       0.00000035 Ry

     total magnetization       =    -0.54 Bohr mag/cell
     absolute magnetization    =    49.15 Bohr mag/cell

     iteration # 91     ecut=    71.00 Ry     beta= 0.30
     Davidson diagonalization with overlap
     ethr =  3.87E-11,  avg # of iterations =  2.0

     total cpu time spent up to now is    15129.4 secs

     total energy              =  -10638.64930104 Ry
     estimated scf accuracy    <       0.00000051 Ry

     total magnetization       =    -0.54 Bohr mag/cell
     absolute magnetization    =    49.15 Bohr mag/cell

     iteration # 92     ecut=    71.00 Ry     beta= 0.30
     Davidson diagonalization with overlap
     ethr =  3.87E-11,  avg # of iterations =  1.0

     total cpu time spent up to now is    15276.4 secs

     total energy              =  -10638.64930104 Ry
     estimated scf accuracy    <       0.00000017 Ry

     total magnetization       =    -0.54 Bohr mag/cell
     absolute magnetization    =    49.15 Bohr mag/cell

     iteration # 93     ecut=    71.00 Ry     beta= 0.30
     Davidson diagonalization with overlap
     ethr =  3.23E-11,  avg # of iterations =  2.1

     total cpu time spent up to now is    15447.5 secs

     total energy              =  -10638.64930106 Ry
     estimated scf accuracy    <       0.00000018 Ry

     total magnetization       =    -0.54 Bohr mag/cell
     absolute magnetization    =    49.15 Bohr mag/cell

     iteration # 94     ecut=    71.00 Ry     beta= 0.30
     Davidson diagonalization with overlap
     ethr =  3.23E-11,  avg # of iterations =  1.4

     total cpu time spent up to now is    15600.8 secs

     total energy              =  -10638.64930105 Ry
     estimated scf accuracy    <       0.00000030 Ry

     total magnetization       =    -0.54 Bohr mag/cell
     absolute magnetization    =    49.15 Bohr mag/cell

     iteration # 95     ecut=    71.00 Ry     beta= 0.30
     Davidson diagonalization with overlap
     ethr =  3.23E-11,  avg # of iterations =  1.2

     total cpu time spent up to now is    15750.7 secs

     total energy              =  -10638.64930105 Ry
     estimated scf accuracy    <       0.00000040 Ry

     total magnetization       =    -0.54 Bohr mag/cell
     absolute magnetization    =    49.15 Bohr mag/cell

     iteration # 96     ecut=    71.00 Ry     beta= 0.30
     Davidson diagonalization with overlap
     ethr =  3.23E-11,  avg # of iterations =  1.0

     total cpu time spent up to now is    15898.3 secs

     total energy              =  -10638.64930107 Ry
     estimated scf accuracy    <       0.00000013 Ry

     total magnetization       =    -0.54 Bohr mag/cell
     absolute magnetization    =    49.15 Bohr mag/cell

     iteration # 97     ecut=    71.00 Ry     beta= 0.30
     Davidson diagonalization with overlap
     ethr =  2.45E-11,  avg # of iterations =  1.3

     total cpu time spent up to now is    16050.5 secs

     total energy              =  -10638.64930107 Ry
     estimated scf accuracy    <       0.00000010 Ry

     total magnetization       =    -0.54 Bohr mag/cell
     absolute magnetization    =    49.15 Bohr mag/cell

     iteration # 98     ecut=    71.00 Ry     beta= 0.30
     Davidson diagonalization with overlap
     ethr =  2.04E-11,  avg # of iterations =  1.0

     total cpu time spent up to now is    16198.3 secs

     total energy              =  -10638.64930109 Ry
     estimated scf accuracy    <       0.00000009 Ry

     total magnetization       =    -0.54 Bohr mag/cell
     absolute magnetization    =    49.15 Bohr mag/cell

     iteration # 99     ecut=    71.00 Ry     beta= 0.30
     Davidson diagonalization with overlap
     ethr =  1.68E-11,  avg # of iterations =  1.7

     total cpu time spent up to now is    16356.8 secs

     total energy              =  -10638.64930109 Ry
     estimated scf accuracy    <       0.00000014 Ry

     total magnetization       =    -0.54 Bohr mag/cell
     absolute magnetization    =    49.15 Bohr mag/cell

     iteration #100     ecut=    71.00 Ry     beta= 0.30
     Davidson diagonalization with overlap
     ethr =  1.68E-11,  avg # of iterations =  1.1

     total cpu time spent up to now is    16505.1 secs

     total energy              =  -10638.64930109 Ry
     estimated scf accuracy    <       0.00000022 Ry

     total magnetization       =    -0.54 Bohr mag/cell
     absolute magnetization    =    49.15 Bohr mag/cell

     End of self-consistent calculation

     convergence NOT achieved after 100 iterations: stopping

     Writing output data file /scratch/bxp912/feru1a.save/
 
     init_run     :     57.74s CPU     59.05s WALL (       1 calls)
     electrons    :  16172.47s CPU  16440.86s WALL (       1 calls)

     Called by init_run:
     wfcinit      :     56.33s CPU     57.53s WALL (       1 calls)
     potinit      :      0.45s CPU      0.49s WALL (       1 calls)
     hinit0       :      0.69s CPU      0.72s WALL (       1 calls)

     Called by electrons:
     c_bands      :  13951.27s CPU  14173.71s WALL (     100 calls)
     sum_band     :   2192.58s CPU   2227.58s WALL (     100 calls)
     v_of_rho     :      2.25s CPU      2.37s WALL (     101 calls)
     newd         :      7.80s CPU      8.98s WALL (     101 calls)
     PAW_pot      :     17.20s CPU     18.42s WALL (     101 calls)
     mix_rho      :      0.99s CPU      1.09s WALL (     100 calls)

     Called by c_bands:
     init_us_2    :     86.61s CPU     87.98s WALL (   50250 calls)
     cegterg      :  13646.28s CPU  13804.18s WALL (   25000 calls)

     Called by *egterg:
     cdiaghg      :   1645.47s CPU   1653.53s WALL (   75253 calls)
     h_psi        :   7776.31s CPU   7898.25s WALL (   75503 calls)
     s_psi        :    562.83s CPU    567.09s WALL (   75503 calls)
     g_psi        :     12.89s CPU     13.07s WALL (   50253 calls)

     Called by h_psi:
     h_psi:calbec :   1162.30s CPU   1170.47s WALL (   75503 calls)
     vloc_psi     :   6013.73s CPU   6122.75s WALL (   75503 calls)
     add_vuspsi   :    565.42s CPU    569.99s WALL (   75503 calls)

     General routines
     calbec       :   1711.50s CPU   1723.53s WALL (  100503 calls)
     fft          :      1.67s CPU      1.74s WALL (    2523 calls)
     ffts         :      0.17s CPU      0.18s WALL (     402 calls)
     fftw         :   7342.05s CPU   7473.64s WALL (39379218 calls)
     interpolate  :      0.26s CPU      0.27s WALL (     202 calls)
     davcio       :      0.05s CPU      0.39s WALL (     272 calls)
 
     Parallel routines
     fft_scatt_xy :    316.84s CPU    322.65s WALL (39382143 calls)
     fft_scatt_yz :   6275.79s CPU   6389.78s WALL (39382143 calls)
 
     PWSCF        :      4h30m CPU      4h35m WALL

 
   This run was terminated on:   5:26:19  10Mar2022            

=------------------------------------------------------------------------------=
   JOB DONE.
=------------------------------------------------------------------------------=
