
     Program PWSCF v.6.7MaX starts on 14Mar2022 at 13:46:40 

     This program is part of the open-source Quantum ESPRESSO suite
     for quantum simulation of materials; please cite
         "P. Giannozzi et al., J. Phys.:Condens. Matter 21 395502 (2009);
         "P. Giannozzi et al., J. Phys.:Condens. Matter 29 465901 (2017);
          URL http://www.quantum-espresso.org", 
     in publications or presentations arising from this work. More details at
     http://www.quantum-espresso.org/quote

     Parallel version (MPI & OpenMP), running on      72 processor cores
     Number of MPI processes:                72
     Threads/MPI process:                     1

     MPI processes distributed on     1 nodes
     R & G space division:  proc/nbgrp/npool/nimage =      72
     Reading input from fe_relax_bcc.in

     Current dimensions of program PWSCF are:
     Max number of different atomic species (ntypx) = 10
     Max number of k-points (npk) =  40000
     Max angular momentum in pseudopotentials (lmaxx) =  3
     file Fe.pbe-spn-kjpaw_psl.1.0.0.UPF: wavefunction(s)  3P 3D renormalized
     file Fe.pbe-spn-kjpaw_psl.1.0.0.UPF: wavefunction(s)  3P 3D renormalized

     Subspace diagonalization in iterative solution of the eigenvalue problem:
     one sub-group per band group will be used
     ELPA distributed-memory algorithm (size of sub-group:  8*  8 procs)

     Found symmetry operation: I + (  0.0000  0.0000 -0.5000)
     This is a supercell, fractional translations are disabled
     Message from routine setup:
     using ibrav=0 with symmetry is DISCOURAGED, use correct ibrav instead
 
     Parallelization info
     --------------------
     sticks:   dense  smooth     PW     G-vecs:    dense   smooth      PW
     Min          53      35      9                 2478     1327     193
     Max          55      36     10                 2481     1332     202
     Sum        3833    2537    717               178541    95769   14243
 


     bravais-lattice index     =            0
     lattice parameter (alat)  =      10.5840  a.u.
     unit-cell volume          =    1185.6309 (a.u.)^3
     number of atoms/cell      =           16
     number of atomic types    =            2
     number of electrons       =       256.00
     number of Kohn-Sham states=          154
     kinetic-energy cutoff     =      71.0000  Ry
     charge density cutoff     =     430.0000  Ry
     scf convergence threshold =      1.0E-08
     mixing beta               =       0.3000
     number of iterations used =           10  plain     mixing
     energy convergence thresh.=      1.0E-04
     force convergence thresh. =      1.0E-03
     press convergence thresh. =      5.0E-01
     Exchange-correlation= SLA  PW   PBX  PBC
                           (   1   4   3   4   0   0   0)
     nstep                     =           40


     celldm(1)=  10.584000  celldm(2)=   0.000000  celldm(3)=   0.000000
     celldm(4)=   0.000000  celldm(5)=   0.000000  celldm(6)=   0.000000

     crystal axes: (cart. coord. in units of alat)
               a(1) = (   1.000000   0.000000   0.000000 )  
               a(2) = (   0.000000   1.000000   0.000000 )  
               a(3) = (   0.000000   0.000000   1.000000 )  

     reciprocal axes: (cart. coord. in units 2 pi/alat)
               b(1) = (  1.000000  0.000000  0.000000 )  
               b(2) = (  0.000000  1.000000  0.000000 )  
               b(3) = (  0.000000  0.000000  1.000000 )  


     PseudoPot. # 1 for Fe read from file:
     /rds/homes/b/bxp912/pp/Fe.pbe-spn-kjpaw_psl.1.0.0.UPF
     MD5 check sum: 42f43b795421b414b0dc916aa790dbcb
     Pseudo is Projector augmented-wave + core cor, Zval = 16.0
     Generated using &quot;atomic&quot; code by A. Dal Corso  v.6.3
     Shape of augmentation charge: PSQ
     Using radial grid of 1191 points,  6 beta functions with: 
                l(1) =   0
                l(2) =   0
                l(3) =   1
                l(4) =   1
                l(5) =   2
                l(6) =   2
     Q(r) pseudized with 0 coefficients 


     PseudoPot. # 2 for Fe read from file:
     /rds/homes/b/bxp912/pp/Fe.pbe-spn-kjpaw_psl.1.0.0.UPF
     MD5 check sum: 42f43b795421b414b0dc916aa790dbcb
     Pseudo is Projector augmented-wave + core cor, Zval = 16.0
     Generated using &quot;atomic&quot; code by A. Dal Corso  v.6.3
     Shape of augmentation charge: PSQ
     Using radial grid of 1191 points,  6 beta functions with: 
                l(1) =   0
                l(2) =   0
                l(3) =   1
                l(4) =   1
                l(5) =   2
                l(6) =   2
     Q(r) pseudized with 0 coefficients 


     atomic species   valence    mass     pseudopotential
        Fe1           16.00    55.84500     Fe( 1.00)
        Fe2           16.00    55.84500     Fe( 1.00)

     Starting magnetic structure 
     atomic species   magnetization
        Fe1          0.100
        Fe2          0.100

     48 Sym. Ops., with inversion, found



   Cartesian axes

     site n.     atom                  positions (alat units)
         1           Fe1 tau(   1) = (   0.0000000   0.0000000   0.0000000  )
         2           Fe2 tau(   2) = (   0.2500000   0.2500000   0.2500000  )
         3           Fe1 tau(   3) = (   0.0000000   0.0000000   0.5000000  )
         4           Fe2 tau(   4) = (   0.2500000   0.2500000   0.7500000  )
         5           Fe1 tau(   5) = (   0.0000000   0.5000000   0.0000000  )
         6           Fe2 tau(   6) = (   0.2500000   0.7500000   0.2500000  )
         7           Fe1 tau(   7) = (   0.0000000   0.5000000   0.5000000  )
         8           Fe2 tau(   8) = (   0.2500000   0.7500000   0.7500000  )
         9           Fe1 tau(   9) = (   0.5000000   0.0000000   0.0000000  )
        10           Fe2 tau(  10) = (   0.7500000   0.2500000   0.2500000  )
        11           Fe1 tau(  11) = (   0.5000000   0.0000000   0.5000000  )
        12           Fe2 tau(  12) = (   0.7500000   0.2500000   0.7500000  )
        13           Fe1 tau(  13) = (   0.5000000   0.5000000   0.0000000  )
        14           Fe2 tau(  14) = (   0.7500000   0.7500000   0.2500000  )
        15           Fe1 tau(  15) = (   0.5000000   0.5000000   0.5000000  )
        16           Fe2 tau(  16) = (   0.7500000   0.7500000   0.7500000  )

     number of k points=    35  Marzari-Vanderbilt smearing, width (Ry)=  0.0400
                       cart. coord. in units 2pi/alat
        k(    1) = (   0.0555556   0.0555556   0.0555556), wk =   0.0109739
        k(    2) = (   0.0555556   0.0555556   0.1666667), wk =   0.0329218
        k(    3) = (   0.0555556   0.0555556   0.2777778), wk =   0.0329218
        k(    4) = (   0.0555556   0.0555556   0.3888889), wk =   0.0329218
        k(    5) = (   0.0555556   0.0555556  -0.5000000), wk =   0.0164609
        k(    6) = (   0.0555556   0.1666667   0.1666667), wk =   0.0329218
        k(    7) = (   0.0555556   0.1666667   0.2777778), wk =   0.0658436
        k(    8) = (   0.0555556   0.1666667   0.3888889), wk =   0.0658436
        k(    9) = (   0.0555556   0.1666667  -0.5000000), wk =   0.0329218
        k(   10) = (   0.0555556   0.2777778   0.2777778), wk =   0.0329218
        k(   11) = (   0.0555556   0.2777778   0.3888889), wk =   0.0658436
        k(   12) = (   0.0555556   0.2777778  -0.5000000), wk =   0.0329218
        k(   13) = (   0.0555556   0.3888889   0.3888889), wk =   0.0329218
        k(   14) = (   0.0555556   0.3888889  -0.5000000), wk =   0.0329218
        k(   15) = (   0.0555556  -0.5000000  -0.5000000), wk =   0.0082305
        k(   16) = (   0.1666667   0.1666667   0.1666667), wk =   0.0109739
        k(   17) = (   0.1666667   0.1666667   0.2777778), wk =   0.0329218
        k(   18) = (   0.1666667   0.1666667   0.3888889), wk =   0.0329218
        k(   19) = (   0.1666667   0.1666667  -0.5000000), wk =   0.0164609
        k(   20) = (   0.1666667   0.2777778   0.2777778), wk =   0.0329218
        k(   21) = (   0.1666667   0.2777778   0.3888889), wk =   0.0658436
        k(   22) = (   0.1666667   0.2777778  -0.5000000), wk =   0.0329218
        k(   23) = (   0.1666667   0.3888889   0.3888889), wk =   0.0329218
        k(   24) = (   0.1666667   0.3888889  -0.5000000), wk =   0.0329218
        k(   25) = (   0.1666667  -0.5000000  -0.5000000), wk =   0.0082305
        k(   26) = (   0.2777778   0.2777778   0.2777778), wk =   0.0109739
        k(   27) = (   0.2777778   0.2777778   0.3888889), wk =   0.0329218
        k(   28) = (   0.2777778   0.2777778  -0.5000000), wk =   0.0164609
        k(   29) = (   0.2777778   0.3888889   0.3888889), wk =   0.0329218
        k(   30) = (   0.2777778   0.3888889  -0.5000000), wk =   0.0329218
        k(   31) = (   0.2777778  -0.5000000  -0.5000000), wk =   0.0082305
        k(   32) = (   0.3888889   0.3888889   0.3888889), wk =   0.0109739
        k(   33) = (   0.3888889   0.3888889  -0.5000000), wk =   0.0164609
        k(   34) = (   0.3888889  -0.5000000  -0.5000000), wk =   0.0082305
        k(   35) = (  -0.5000000  -0.5000000  -0.5000000), wk =   0.0013717

     Dense  grid:   178541 G-vectors     FFT dimensions: (  72,  72,  72)

     Smooth grid:    95769 G-vectors     FFT dimensions: (  60,  60,  60)

     Estimated max dynamical RAM per process >      45.76 MB

     Estimated total dynamical RAM >       3.22 GB

     Check: negative core charge=   -0.000006
     Generating pointlists ...
     new r_m :   0.1786 (alat units)  1.8905 (a.u.) for type    1
     new r_m :   0.1786 (alat units)  1.8905 (a.u.) for type    2

     Initial potential from superposition of free atoms

     starting charge  255.99300, renormalised to  256.00000
     Starting wfcs are  160 randomized atomic wfcs
     Checking if some PAW data can be deallocated... 

     total cpu time spent up to now is        7.2 secs

     Self-consistent Calculation

     iteration #  1     ecut=    71.00 Ry     beta= 0.30
     Davidson diagonalization with overlap
     ethr =  1.00E-02,  avg # of iterations =  3.4

     Threshold (ethr) on eigenvalues was too large:
     Diagonalizing with lowered threshold

     Davidson diagonalization with overlap
     ethr =  1.18E-04,  avg # of iterations =  5.3

     total cpu time spent up to now is       36.8 secs

     total energy              =   -5267.89529111 Ry
     estimated scf accuracy    <       0.59490212 Ry

     total magnetization       =    27.91 Bohr mag/cell
     absolute magnetization    =    28.01 Bohr mag/cell

     iteration #  2     ecut=    71.00 Ry     beta= 0.30
     Davidson diagonalization with overlap
     ethr =  2.32E-04,  avg # of iterations =  3.3

     total cpu time spent up to now is       50.0 secs

     total energy              =   -5268.05272041 Ry
     estimated scf accuracy    <       0.12843901 Ry

     total magnetization       =    29.78 Bohr mag/cell
     absolute magnetization    =    30.07 Bohr mag/cell

     iteration #  3     ecut=    71.00 Ry     beta= 0.30
     Davidson diagonalization with overlap
     ethr =  5.02E-05,  avg # of iterations =  2.2

     total cpu time spent up to now is       61.1 secs

     total energy              =   -5268.04914190 Ry
     estimated scf accuracy    <       0.43854814 Ry

     total magnetization       =    30.40 Bohr mag/cell
     absolute magnetization    =    30.84 Bohr mag/cell

     iteration #  4     ecut=    71.00 Ry     beta= 0.30
     Davidson diagonalization with overlap
     ethr =  5.02E-05,  avg # of iterations =  1.1

     total cpu time spent up to now is       70.6 secs

     total energy              =   -5268.11676243 Ry
     estimated scf accuracy    <       0.14044864 Ry

     total magnetization       =    30.56 Bohr mag/cell
     absolute magnetization    =    31.04 Bohr mag/cell

     iteration #  5     ecut=    71.00 Ry     beta= 0.30
     Davidson diagonalization with overlap
     ethr =  5.02E-05,  avg # of iterations =  2.5

     negative rho (up, down):  0.000E+00 2.673E-03

     total cpu time spent up to now is       82.1 secs

     total energy              =   -5268.14346892 Ry
     estimated scf accuracy    <       0.64446836 Ry

     total magnetization       =    31.13 Bohr mag/cell
     absolute magnetization    =    31.87 Bohr mag/cell

     iteration #  6     ecut=    71.00 Ry     beta= 0.30
     Davidson diagonalization with overlap
     ethr =  5.02E-05,  avg # of iterations =  3.3

     negative rho (up, down):  0.000E+00 2.842E-03

     total cpu time spent up to now is       94.8 secs

     total energy              =   -5268.18935582 Ry
     estimated scf accuracy    <       0.10941124 Ry

     total magnetization       =    32.15 Bohr mag/cell
     absolute magnetization    =    33.61 Bohr mag/cell

     iteration #  7     ecut=    71.00 Ry     beta= 0.30
     Davidson diagonalization with overlap
     ethr =  4.27E-05,  avg # of iterations =  1.1

     negative rho (up, down):  0.000E+00 2.640E-03

     total cpu time spent up to now is      104.4 secs

     total energy              =   -5268.16685158 Ry
     estimated scf accuracy    <       0.04577426 Ry

     total magnetization       =    32.25 Bohr mag/cell
     absolute magnetization    =    33.76 Bohr mag/cell

     iteration #  8     ecut=    71.00 Ry     beta= 0.30
     Davidson diagonalization with overlap
     ethr =  1.79E-05,  avg # of iterations =  5.4

     negative rho (up, down):  0.000E+00 2.521E-03

     total cpu time spent up to now is      122.6 secs

     total energy              =   -5268.19191684 Ry
     estimated scf accuracy    <       0.08820310 Ry

     total magnetization       =    32.75 Bohr mag/cell
     absolute magnetization    =    34.29 Bohr mag/cell

     iteration #  9     ecut=    71.00 Ry     beta= 0.30
     Davidson diagonalization with overlap
     ethr =  1.79E-05,  avg # of iterations =  1.0

     negative rho (up, down):  0.000E+00 2.273E-03

     total cpu time spent up to now is      132.1 secs

     total energy              =   -5268.17741503 Ry
     estimated scf accuracy    <       0.04933386 Ry

     total magnetization       =    32.70 Bohr mag/cell
     absolute magnetization    =    34.26 Bohr mag/cell

     iteration # 10     ecut=    71.00 Ry     beta= 0.30
     Davidson diagonalization with overlap
     ethr =  1.79E-05,  avg # of iterations =  3.4

     negative rho (up, down):  0.000E+00 2.427E-03

     total cpu time spent up to now is      145.5 secs

     total energy              =   -5268.18830039 Ry
     estimated scf accuracy    <       0.00177369 Ry

     total magnetization       =    32.57 Bohr mag/cell
     absolute magnetization    =    34.21 Bohr mag/cell

     iteration # 11     ecut=    71.00 Ry     beta= 0.30
     Davidson diagonalization with overlap
     ethr =  6.93E-07,  avg # of iterations =  4.3

     negative rho (up, down):  0.000E+00 2.423E-03

     total cpu time spent up to now is      158.6 secs

     total energy              =   -5268.18768750 Ry
     estimated scf accuracy    <       0.00201702 Ry

     total magnetization       =    32.69 Bohr mag/cell
     absolute magnetization    =    34.40 Bohr mag/cell

     iteration # 12     ecut=    71.00 Ry     beta= 0.30
     Davidson diagonalization with overlap
     ethr =  6.93E-07,  avg # of iterations =  4.6

     negative rho (up, down):  0.000E+00 2.408E-03

     total cpu time spent up to now is      174.3 secs

     total energy              =   -5268.18830138 Ry
     estimated scf accuracy    <       0.00084952 Ry

     total magnetization       =    32.82 Bohr mag/cell
     absolute magnetization    =    34.55 Bohr mag/cell

     iteration # 13     ecut=    71.00 Ry     beta= 0.30
     Davidson diagonalization with overlap
     ethr =  3.32E-07,  avg # of iterations =  3.2

     negative rho (up, down):  0.000E+00 2.408E-03

     total cpu time spent up to now is      186.6 secs

     total energy              =   -5268.18843319 Ry
     estimated scf accuracy    <       0.00002526 Ry

     total magnetization       =    32.84 Bohr mag/cell
     absolute magnetization    =    34.59 Bohr mag/cell

     iteration # 14     ecut=    71.00 Ry     beta= 0.30
     Davidson diagonalization with overlap
     ethr =  9.87E-09,  avg # of iterations =  4.3

     negative rho (up, down):  0.000E+00 2.434E-03

     total cpu time spent up to now is      200.7 secs

     total energy              =   -5268.18843959 Ry
     estimated scf accuracy    <       0.00000361 Ry

     total magnetization       =    32.84 Bohr mag/cell
     absolute magnetization    =    34.59 Bohr mag/cell

     iteration # 15     ecut=    71.00 Ry     beta= 0.30
     Davidson diagonalization with overlap
     ethr =  1.41E-09,  avg # of iterations =  3.3

     negative rho (up, down):  0.000E+00 2.442E-03

     total cpu time spent up to now is      214.3 secs

     total energy              =   -5268.18844139 Ry
     estimated scf accuracy    <       0.00000243 Ry

     total magnetization       =    32.85 Bohr mag/cell
     absolute magnetization    =    34.60 Bohr mag/cell

     iteration # 16     ecut=    71.00 Ry     beta= 0.30
     Davidson diagonalization with overlap
     ethr =  9.48E-10,  avg # of iterations =  4.1

     negative rho (up, down):  0.000E+00 2.445E-03

     total cpu time spent up to now is      229.3 secs

     total energy              =   -5268.18844211 Ry
     estimated scf accuracy    <       0.00000104 Ry

     total magnetization       =    32.85 Bohr mag/cell
     absolute magnetization    =    34.60 Bohr mag/cell

     iteration # 17     ecut=    71.00 Ry     beta= 0.30
     Davidson diagonalization with overlap
     ethr =  4.07E-10,  avg # of iterations =  3.1

     negative rho (up, down):  0.000E+00 2.448E-03

     total cpu time spent up to now is      244.3 secs

     total energy              =   -5268.18844231 Ry
     estimated scf accuracy    <       0.00000013 Ry

     total magnetization       =    32.85 Bohr mag/cell
     absolute magnetization    =    34.60 Bohr mag/cell

     iteration # 18     ecut=    71.00 Ry     beta= 0.30
     Davidson diagonalization with overlap
     ethr =  4.94E-11,  avg # of iterations =  3.2

     negative rho (up, down):  0.000E+00 2.448E-03

     total cpu time spent up to now is      257.2 secs

     total energy              =   -5268.18844231 Ry
     estimated scf accuracy    <       0.00000015 Ry

     total magnetization       =    32.85 Bohr mag/cell
     absolute magnetization    =    34.60 Bohr mag/cell

     iteration # 19     ecut=    71.00 Ry     beta= 0.30
     Davidson diagonalization with overlap
     ethr =  4.94E-11,  avg # of iterations =  2.4

     negative rho (up, down):  0.000E+00 2.449E-03

     total cpu time spent up to now is      268.4 secs

     total energy              =   -5268.18844232 Ry
     estimated scf accuracy    <       0.00000004 Ry

     total magnetization       =    32.85 Bohr mag/cell
     absolute magnetization    =    34.60 Bohr mag/cell

     iteration # 20     ecut=    71.00 Ry     beta= 0.30
     Davidson diagonalization with overlap
     ethr =  1.53E-11,  avg # of iterations =  4.8

     negative rho (up, down):  0.000E+00 2.449E-03

     total cpu time spent up to now is      284.9 secs

     total energy              =   -5268.18844233 Ry
     estimated scf accuracy    <       0.00000007 Ry

     total magnetization       =    32.85 Bohr mag/cell
     absolute magnetization    =    34.60 Bohr mag/cell

     iteration # 21     ecut=    71.00 Ry     beta= 0.30
     Davidson diagonalization with overlap
     ethr =  1.53E-11,  avg # of iterations =  4.0

     negative rho (up, down):  0.000E+00 2.449E-03
 
     Magnetic moment per site:
     atom:    1    charge:   14.3642    magn:    2.0970    constr:    0.0000
     atom:    2    charge:   14.3642    magn:    2.0971    constr:    0.0000
     atom:    3    charge:   14.3642    magn:    2.0970    constr:    0.0000
     atom:    4    charge:   14.3642    magn:    2.0971    constr:    0.0000
     atom:    5    charge:   14.3642    magn:    2.0970    constr:    0.0000
     atom:    6    charge:   14.3642    magn:    2.0971    constr:    0.0000
     atom:    7    charge:   14.3642    magn:    2.0969    constr:    0.0000
     atom:    8    charge:   14.3642    magn:    2.0971    constr:    0.0000
     atom:    9    charge:   14.3642    magn:    2.0970    constr:    0.0000
     atom:   10    charge:   14.3642    magn:    2.0971    constr:    0.0000
     atom:   11    charge:   14.3642    magn:    2.0969    constr:    0.0000
     atom:   12    charge:   14.3642    magn:    2.0971    constr:    0.0000
     atom:   13    charge:   14.3642    magn:    2.0969    constr:    0.0000
     atom:   14    charge:   14.3642    magn:    2.0971    constr:    0.0000
     atom:   15    charge:   14.3642    magn:    2.0966    constr:    0.0000
     atom:   16    charge:   14.3642    magn:    2.0971    constr:    0.0000

     total cpu time spent up to now is      298.7 secs

     End of self-consistent calculation

 ------ SPIN UP ------------


          k = 0.0556 0.0556 0.0556 ( 11954 PWs)   bands (ev):

   -69.0288 -68.9515 -68.9515 -68.9514 -68.9390 -68.9390 -68.9390 -68.9379
   -68.9379 -68.9378 -68.9378 -68.9378 -68.9377 -68.9324 -68.9321 -68.8723
   -35.2541 -35.2541 -35.2541 -35.2516 -35.2516 -35.2516 -35.1236 -35.1236
   -35.1184 -35.0585 -35.0555 -35.0555 -35.0554 -35.0383 -35.0383 -35.0269
   -35.0269 -35.0269 -34.9980 -34.9980 -34.9786 -34.9675 -34.9674 -34.9674
   -34.9579 -34.9579 -34.9579 -34.9481 -34.9481 -34.9481 -34.9453 -34.9453
   -34.9453 -34.9382 -34.9382 -34.9382 -34.9292 -34.9292 -34.9292 -34.7966
   -34.7949 -34.7949 -34.7949 -34.7921 -34.7921 -34.7921 -34.7921 -34.7921
    10.4009  13.9643  13.9643  13.9643  13.9834  13.9834  13.9834  14.0138
    14.0138  14.0165  14.0165  14.0165  14.4251  14.4251  14.4251  15.6039
    15.6163  15.6164  15.6164  15.6291  15.6291  15.6291  15.6897  15.6897
    15.7655  15.7655  15.7655  15.8343  15.8343  15.8899  16.1066  16.1066
    16.1066  16.7576  16.7576  16.8003  17.0863  17.0863  17.0863  17.1660
    17.1661  17.1661  17.2597  17.2597  17.2597  17.3411  17.3411  17.3411
    17.9801  17.9801  17.9801  17.9831  17.9831  18.0257  18.0257  18.0257
    18.0721  18.0721  18.0721  18.0790  18.0790  18.0790  18.1945  18.1946
    18.1946  18.2031  18.2031  18.2031  18.2339  18.2339  18.2348  18.2348
    19.1024  19.1024  19.1024  19.1512  19.1512  19.1513  19.2664  19.3331
    19.3331  19.3455  19.3456  19.3456  19.6772  19.6772  19.6772  19.8736
    19.8736  19.8736

          k = 0.0556 0.0556 0.1667 ( 11961 PWs)   bands (ev):

   -69.0259 -68.9653 -68.9509 -68.9509 -68.9406 -68.9406 -68.9386 -68.9376
   -68.9376 -68.9375 -68.9370 -68.9370 -68.9329 -68.9325 -68.9248 -68.8744
   -35.2478 -35.2477 -35.2468 -35.2446 -35.2406 -35.2406 -35.1264 -35.1184
   -35.1106 -35.0882 -35.0809 -35.0809 -35.0795 -35.0785 -35.0536 -35.0536
   -35.0261 -35.0038 -34.9964 -34.9941 -34.9865 -34.9672 -34.9672 -34.9587
   -34.9528 -34.9511 -34.9511 -34.9497 -34.9482 -34.9433 -34.9433 -34.9386
   -34.9386 -34.9345 -34.9345 -34.9098 -34.9068 -34.9068 -34.9013 -34.8084
   -34.8022 -34.8022 -34.8011 -34.7988 -34.7960 -34.7948 -34.7947 -34.7935
    10.5326  13.4655  13.9829  13.9829  14.0416  14.0416  14.0575  14.0648
    14.0648  14.0705  14.0736  14.0755  14.4616  14.4616  14.6496  15.4290
    15.4972  15.5946  15.6030  15.6145  15.6166  15.6611  15.6612  15.6993
    15.6993  15.7217  15.7482  15.7482  16.0319  16.0331  16.0567  16.0568
    16.4341  16.7367  16.7561  16.8573  16.8924  16.8924  16.9497  17.0434
    17.0551  17.0551  17.2842  17.2842  17.4091  17.4091  17.4717  17.5617
    17.6425  17.6425  17.7620  17.9092  17.9092  17.9233  17.9699  18.0085
    18.0296  18.0296  18.0853  18.0878  18.1069  18.1069  18.1842  18.1842
    18.1969  18.2290  18.2311  18.2313  18.2344  18.4006  18.4006  18.4244
    18.5275  18.7301  18.7752  19.0770  19.0770  19.1186  19.1251  19.1251
    19.2165  19.3261  19.4445  19.4446  19.7400  19.7400  19.7454  19.7454
    20.1936  20.1936

          k = 0.0556 0.0556 0.2778 ( 11976 PWs)   bands (ev):

   -69.0205 -68.9788 -68.9498 -68.9498 -68.9425 -68.9425 -68.9380 -68.9374
   -68.9373 -68.9368 -68.9366 -68.9366 -68.9337 -68.9331 -68.9125 -68.8784
   -35.2332 -35.2332 -35.2325 -35.2308 -35.2217 -35.2216 -35.1264 -35.1219
   -35.1170 -35.1153 -35.1153 -35.1080 -35.0984 -35.0977 -35.0895 -35.0895
   -35.0239 -35.0139 -35.0137 -34.9997 -34.9657 -34.9657 -34.9615 -34.9589
   -34.9578 -34.9542 -34.9542 -34.9418 -34.9418 -34.9389 -34.9389 -34.9214
   -34.9151 -34.9057 -34.9057 -34.8830 -34.8797 -34.8796 -34.8752 -34.8283
   -34.8145 -34.8144 -34.8138 -34.8123 -34.8054 -34.8025 -34.8025 -34.8010
    10.7921  12.8452  14.0322  14.0322  14.1316  14.1316  14.1347  14.1347
    14.1826  14.1867  14.2369  14.2523  14.4931  14.4931  14.7034  15.1097
    15.3478  15.3958  15.5424  15.5796  15.5893  15.5928  15.7614  15.7614
    15.7804  15.7805  15.8245  15.8245  16.0441  16.0441  16.2787  16.2901
    16.6314  16.6314  16.6961  16.7252  16.7530  16.7788  16.7788  16.8482
    16.9415  17.0115  17.1741  17.1741  17.4251  17.4251  17.4710  17.4710
    17.5225  17.5225  17.5549  17.7232  17.7667  17.8053  17.8225  17.9357
    17.9636  17.9637  18.0478  18.0478  18.0568  18.1090  18.1260  18.2012
    18.2183  18.2211  18.2265  18.2340  18.4083  18.4479  18.4479  18.4933
    18.6377  18.6577  18.6577  18.8945  19.0048  19.0824  19.0824  19.1713
    19.1713  19.2628  19.4167  19.4168  19.6123  19.6123  19.8557  19.8557
    20.2847  20.2847

          k = 0.0556 0.0556 0.3889 ( 11969 PWs)   bands (ev):

   -69.0128 -68.9915 -68.9483 -68.9482 -68.9445 -68.9444 -68.9370 -68.9370
   -68.9369 -68.9366 -68.9365 -68.9359 -68.9347 -68.9339 -68.9016 -68.8843
   -35.2115 -35.2113 -35.2113 -35.2105 -35.1953 -35.1953 -35.1548 -35.1527
   -35.1504 -35.1504 -35.1272 -35.1272 -35.1244 -35.1111 -35.0927 -35.0823
   -35.0499 -35.0395 -35.0003 -34.9907 -34.9730 -34.9678 -34.9636 -34.9636
   -34.9575 -34.9575 -34.9406 -34.9406 -34.9392 -34.9392 -34.9226 -34.8870
   -34.8835 -34.8777 -34.8776 -34.8584 -34.8550 -34.8541 -34.8541 -34.8515
   -34.8319 -34.8317 -34.8314 -34.8314 -34.8192 -34.8150 -34.8150 -34.8136
    11.1712  12.2252  14.0976  14.0976  14.1703  14.1703  14.2522  14.2522
    14.3357  14.3475  14.4660  14.4660  14.4876  14.4987  14.6343  14.8175
    15.0925  15.1029  15.5248  15.5411  15.5532  15.5610  15.9126  15.9127
    15.9411  15.9411  15.9988  15.9988  16.1453  16.1454  16.3861  16.3861
    16.5016  16.5016  16.5971  16.6057  16.7004  16.7004  16.7253  16.7537
    16.7708  16.7803  16.9071  16.9072  17.0547  17.1761  17.3648  17.3856
    17.4310  17.6339  17.6493  17.6493  17.6639  17.6639  17.8763  17.8763
    17.9600  17.9600  18.0077  18.1144  18.1267  18.1402  18.1451  18.1992
    18.2009  18.2072  18.2205  18.2359  18.2813  18.3339  18.6165  18.7017
    18.7018  18.7296  18.8350  18.9090  18.9090  19.0371  19.0371  19.1545
    19.2430  19.2430  19.3038  19.3038  19.4719  19.4720  20.0038  20.0038
    20.2616  20.2616

          k = 0.0556 0.0556-0.5000 ( 11990 PWs)   bands (ev):

   -69.0030 -69.0029 -68.9465 -68.9465 -68.9465 -68.9464 -68.9368 -68.9367
   -68.9367 -68.9367 -68.9358 -68.9357 -68.9349 -68.9349 -68.8922 -68.8921
   -35.1849 -35.1848 -35.1847 -35.1846 -35.1832 -35.1832 -35.1832 -35.1832
   -35.1633 -35.1633 -35.1633 -35.1633 -35.1201 -35.1201 -35.0733 -35.0733
   -35.0625 -35.0625 -34.9867 -34.9867 -34.9795 -34.9794 -34.9608 -34.9608
   -34.9608 -34.9608 -34.9399 -34.9399 -34.9398 -34.9398 -34.8868 -34.8868
   -34.8567 -34.8567 -34.8554 -34.8554 -34.8527 -34.8527 -34.8527 -34.8527
   -34.8371 -34.8370 -34.8324 -34.8324 -34.8324 -34.8323 -34.8306 -34.8305
    11.6561  11.6561  14.1540  14.1540  14.1540  14.1540  14.3738  14.3739
    14.3739  14.3739  14.4964  14.4964  14.5610  14.5610  14.7868  14.7868
    14.7905  14.7905  15.5318  15.5318  15.5399  15.5399  16.1022  16.1022
    16.1022  16.1022  16.1705  16.1705  16.1706  16.1706  16.3275  16.3275
    16.3275  16.3276  16.4803  16.4803  16.4804  16.4804  16.7416  16.7416
    16.7619  16.7619  16.9761  16.9761  16.9819  16.9819  17.1968  17.1968
    17.4170  17.4170  17.7701  17.7702  17.7702  17.7702  17.8316  17.8316
    17.8316  17.8316  18.1724  18.1724  18.1732  18.1732  18.2139  18.2139
    18.2177  18.2178  18.2461  18.2461  18.3121  18.3121  18.4232  18.4233
    18.9078  18.9078  18.9078  18.9078  19.0094  19.0094  19.1294  19.1294
    19.1294  19.1294  19.3432  19.3432  19.3432  19.3432  20.1527  20.1527
    20.1527  20.1528

          k = 0.0556 0.1667 0.1667 ( 11981 PWs)   bands (ev):

   -69.0233 -68.9643 -68.9642 -68.9503 -68.9445 -68.9402 -68.9402 -68.9375
   -68.9368 -68.9367 -68.9339 -68.9336 -68.9326 -68.9250 -68.9250 -68.8764
   -35.2463 -35.2408 -35.2408 -35.2345 -35.2345 -35.2253 -35.1319 -35.1153
   -35.1074 -35.1034 -35.1034 -35.0976 -35.0967 -35.0908 -35.0710 -35.0344
   -35.0213 -35.0213 -34.9957 -34.9956 -34.9947 -34.9717 -34.9627 -34.9626
   -34.9589 -34.9566 -34.9566 -34.9475 -34.9475 -34.9432 -34.9419 -34.9363
   -34.9256 -34.9164 -34.9107 -34.9107 -34.8909 -34.8803 -34.8802 -34.8250
   -34.8144 -34.8073 -34.8073 -34.8011 -34.8011 -34.8000 -34.7924 -34.7916
    10.6628  13.5333  13.5333  13.9509  14.0776  14.0776  14.1205  14.1255
    14.1312  14.1330  14.1330  14.1340  14.5089  14.6860  14.6860  15.4019
    15.4350  15.4350  15.5058  15.6450  15.6451  15.6674  15.6788  15.6788
    15.6800  15.7131  15.7847  15.7940  15.9907  16.0305  16.0433  16.3363
    16.3363  16.6830  16.7427  16.7666  16.7666  16.8188  16.9400  16.9505
    17.2087  17.2087  17.2538  17.2539  17.2747  17.3248  17.4530  17.5708
    17.5708  17.5795  17.5795  17.8393  17.8393  17.9147  17.9500  17.9623
    17.9692  17.9692  17.9914  18.0450  18.0450  18.1016  18.1017  18.1755
    18.2214  18.2288  18.2295  18.2393  18.3174  18.5042  18.5349  18.5948
    18.5948  18.6137  18.6137  18.7236  18.7237  18.9227  18.9705  18.9705
    19.1297  19.1852  19.3497  19.5146  19.5413  19.8391  20.4142  20.4142
    20.5911  20.5911

          k = 0.0556 0.1667 0.2778 ( 11967 PWs)   bands (ev):

   -69.0180 -68.9774 -68.9624 -68.9492 -68.9486 -68.9420 -68.9394 -68.9372
   -68.9363 -68.9361 -68.9345 -68.9329 -68.9313 -68.9255 -68.9132 -68.8802
   -35.2365 -35.2270 -35.2270 -35.2221 -35.2167 -35.2018 -35.1365 -35.1351
   -35.1314 -35.1226 -35.1202 -35.1201 -35.1052 -35.0988 -35.0811 -35.0585
   -35.0254 -35.0228 -34.9925 -34.9917 -34.9901 -34.9861 -34.9730 -34.9671
   -34.9663 -34.9604 -34.9552 -34.9460 -34.9436 -34.9331 -34.9299 -34.9130
   -34.9127 -34.8994 -34.8932 -34.8845 -34.8703 -34.8560 -34.8556 -34.8490
   -34.8310 -34.8174 -34.8173 -34.8134 -34.8090 -34.8073 -34.7948 -34.7942
    10.9192  12.9325  13.6481  13.9348  14.1286  14.2014  14.2260  14.2311
    14.2495  14.2507  14.2598  14.3079  14.5600  14.7053  14.7456  15.1338
    15.2927  15.3736  15.5053  15.5975  15.6169  15.6442  15.6827  15.7118
    15.7368  15.7542  15.7908  15.9427  15.9443  16.1866  16.2222  16.2712
    16.5278  16.5435  16.6352  16.6374  16.6798  16.7295  16.7375  16.8571
    16.9664  17.0702  17.1160  17.2138  17.3345  17.3995  17.4375  17.4740
    17.4903  17.5545  17.5592  17.5896  17.6052  17.7591  17.8005  17.8268
    17.8653  17.9824  18.0280  18.0459  18.0747  18.0974  18.1041  18.2068
    18.2166  18.2291  18.2373  18.2494  18.3329  18.4610  18.4733  18.4784
    18.6143  18.6523  18.6646  18.6902  18.7135  18.8157  18.8582  18.9245
    19.0441  19.3136  19.3155  19.3353  19.5256  20.0190  20.2029  20.7689
    20.8265  21.1322

          k = 0.0556 0.1667 0.3889 ( 11978 PWs)   bands (ev):

   -69.0105 -68.9898 -68.9597 -68.9526 -68.9477 -68.9440 -68.9383 -68.9368
   -68.9363 -68.9357 -68.9353 -68.9336 -68.9292 -68.9263 -68.9026 -68.8859
   -35.2192 -35.2071 -35.2068 -35.2045 -35.1924 -35.1716 -35.1668 -35.1575
   -35.1522 -35.1522 -35.1386 -35.1312 -35.1308 -35.0980 -35.0903 -35.0623
   -35.0484 -35.0163 -35.0111 -34.9876 -34.9850 -34.9797 -34.9748 -34.9716
   -34.9649 -34.9646 -34.9498 -34.9452 -34.9442 -34.9242 -34.9157 -34.9032
   -34.8824 -34.8787 -34.8743 -34.8703 -34.8608 -34.8516 -34.8498 -34.8344
   -34.8334 -34.8322 -34.8316 -34.8315 -34.8224 -34.8177 -34.8026 -34.8024
    11.2932  12.3281  13.7720  13.9147  14.1947  14.2556  14.3435  14.3791
    14.3881  14.4116  14.5139  14.5494  14.5498  14.6500  14.6811  14.8563
    15.0999  15.1235  15.5539  15.5846  15.5935  15.6056  15.7043  15.8249
    15.8669  15.8799  15.9303  15.9818  16.1359  16.2357  16.3878  16.4359
    16.4604  16.4621  16.4909  16.5204  16.6051  16.6110  16.6651  16.6714
    16.6794  16.7145  16.8454  17.0131  17.1255  17.1999  17.2123  17.3275
    17.5594  17.6480  17.6569  17.6639  17.6773  17.6818  17.7625  17.7824
    17.8985  17.9557  18.0035  18.0658  18.0989  18.1140  18.1243  18.1835
    18.1916  18.2298  18.2559  18.2699  18.3095  18.3692  18.4116  18.4835
    18.5303  18.6043  18.6549  18.7152  18.7229  18.8030  18.9978  19.0216
    19.0926  19.0980  19.2668  19.4380  19.5068  19.9757  20.2470  20.6912
    20.9814  21.2527

          k = 0.0556 0.1667-0.5000 ( 11984 PWs)   bands (ev):

   -69.0009 -69.0009 -68.9564 -68.9564 -68.9459 -68.9459 -68.9370 -68.9370
   -68.9365 -68.9365 -68.9345 -68.9344 -68.9275 -68.9275 -68.8935 -68.8934
   -35.1956 -35.1956 -35.1825 -35.1825 -35.1817 -35.1816 -35.1811 -35.1811
   -35.1630 -35.1630 -35.1370 -35.1370 -35.1367 -35.1367 -35.0711 -35.0711
   -35.0406 -35.0406 -34.9951 -34.9951 -34.9817 -34.9817 -34.9756 -34.9755
   -34.9686 -34.9686 -34.9447 -34.9446 -34.9195 -34.9195 -34.9128 -34.9128
   -34.8759 -34.8759 -34.8549 -34.8548 -34.8515 -34.8515 -34.8495 -34.8495
   -34.8397 -34.8397 -34.8320 -34.8320 -34.8162 -34.8162 -34.8155 -34.8155
    11.7703  11.7703  13.8655  13.8655  14.2485  14.2486  14.4641  14.4641
    14.5309  14.5309  14.5434  14.5434  14.6131  14.6131  14.8146  14.8147
    14.8293  14.8293  15.5586  15.5586  15.5798  15.5799  15.9895  15.9895
    15.9913  15.9913  16.0202  16.0202  16.0499  16.0499  16.3989  16.3989
    16.4174  16.4174  16.4945  16.4945  16.5971  16.5972  16.5983  16.5983
    16.6971  16.6971  16.8035  16.8035  16.8075  16.8076  17.3758  17.3758
    17.5047  17.5047  17.7081  17.7081  17.7955  17.7955  17.8242  17.8242
    17.8585  17.8585  18.0612  18.0612  18.1539  18.1540  18.1554  18.1555
    18.1914  18.1914  18.2352  18.2352  18.3145  18.3145  18.3586  18.3586
    18.5679  18.5680  18.6832  18.6832  18.8690  18.8690  18.9330  18.9330
    19.1513  19.1513  19.2905  19.2905  19.7376  19.7376  20.4843  20.4843
    21.1696  21.1696

          k = 0.0556 0.2778 0.2778 ( 11991 PWs)   bands (ev):

   -69.0131 -68.9748 -68.9747 -68.9547 -68.9482 -68.9411 -68.9411 -68.9369
   -68.9358 -68.9358 -68.9357 -68.9332 -68.9265 -68.9145 -68.9145 -68.8838
   -35.2317 -35.2154 -35.2153 -35.2071 -35.2071 -35.1748 -35.1486 -35.1486
   -35.1467 -35.1447 -35.1370 -35.1342 -35.1161 -35.0960 -35.0610 -35.0262
   -35.0235 -35.0234 -35.0183 -35.0183 -34.9877 -34.9799 -34.9797 -34.9719
   -34.9719 -34.9607 -34.9606 -34.9539 -34.9539 -34.9485 -34.9189 -34.8936
   -34.8881 -34.8881 -34.8812 -34.8774 -34.8765 -34.8569 -34.8511 -34.8343
   -34.8342 -34.8238 -34.8238 -34.8175 -34.8169 -34.8169 -34.7921 -34.7914
    11.1690  13.0932  13.0932  13.8270  14.3116  14.3131  14.3131  14.3222
    14.3752  14.3759  14.3993  14.3993  14.6540  14.7695  14.7696  15.2349
    15.2357  15.2357  15.3008  15.6389  15.6453  15.6943  15.6943  15.7087
    15.7335  15.7336  15.8012  15.8448  16.1137  16.1401  16.1987  16.4102
    16.4103  16.4949  16.4949  16.4981  16.5448  16.5652  16.6325  16.6985
    16.9876  16.9876  17.1315  17.1315  17.1929  17.1929  17.2306  17.3706
    17.4445  17.4445  17.5509  17.6324  17.7446  17.7446  17.7753  17.8293
    18.0071  18.0187  18.0187  18.0248  18.0248  18.0516  18.0516  18.0847
    18.1426  18.1838  18.1998  18.2396  18.2733  18.3770  18.4343  18.4343
    18.4497  18.4497  18.5088  18.6628  18.7222  18.7223  18.7274  19.0396
    19.0396  19.0884  19.3814  19.5496  19.5635  20.2908  20.8448  20.8448
    21.4886  21.4886

          k = 0.0556 0.2778 0.3889 ( 11985 PWs)   bands (ev):

   -69.0060 -68.9864 -68.9709 -68.9607 -68.9467 -68.9430 -68.9399 -68.9371
   -68.9364 -68.9358 -68.9351 -68.9337 -68.9224 -68.9165 -68.9046 -68.8891
   -35.2191 -35.1984 -35.1982 -35.1936 -35.1868 -35.1763 -35.1608 -35.1563
   -35.1557 -35.1550 -35.1537 -35.1415 -35.1385 -35.0818 -35.0638 -35.0421
   -35.0384 -35.0171 -35.0112 -34.9914 -34.9877 -34.9868 -34.9861 -34.9823
   -34.9822 -34.9772 -34.9636 -34.9534 -34.9515 -34.9305 -34.9109 -34.9090
   -34.8935 -34.8748 -34.8711 -34.8659 -34.8630 -34.8597 -34.8435 -34.8335
   -34.8329 -34.8313 -34.8300 -34.8231 -34.8165 -34.8162 -34.7948 -34.7942
    11.5319  12.5244  13.2984  13.6890  14.3788  14.4034  14.4484  14.5067
    14.5153  14.5469  14.5680  14.6352  14.6922  14.7152  14.7251  14.9831
    15.1168  15.1324  15.4556  15.6062  15.6447  15.6457  15.6708  15.6795
    15.7902  15.8212  15.8217  15.8991  16.1217  16.2231  16.2821  16.3351
    16.3353  16.4155  16.4548  16.4742  16.4779  16.4961  16.5677  16.6146
    16.6627  16.7104  16.7906  16.8447  16.8858  16.9479  17.4094  17.4569
    17.5153  17.6625  17.6892  17.6978  17.7110  17.7394  17.7533  17.8113
    17.9426  17.9486  17.9621  17.9862  18.0537  18.0650  18.0681  18.0744
    18.1503  18.1676  18.1941  18.2556  18.2629  18.2812  18.3121  18.3339
    18.3960  18.4723  18.5070  18.5092  18.5271  18.6943  18.7516  18.8495
    19.1920  19.2438  19.3714  19.5076  19.8716  20.5286  20.6144  21.2513
    21.5163  22.1276

          k = 0.0556 0.2778-0.5000 ( 11998 PWs)   bands (ev):

   -68.9970 -68.9969 -68.9662 -68.9662 -68.9449 -68.9449 -68.9385 -68.9385
   -68.9361 -68.9361 -68.9344 -68.9343 -68.9191 -68.9191 -68.8961 -68.8961
   -35.2003 -35.2003 -35.1778 -35.1778 -35.1777 -35.1777 -35.1776 -35.1776
   -35.1631 -35.1631 -35.1573 -35.1573 -35.1040 -35.1040 -35.0636 -35.0635
   -35.0138 -35.0138 -35.0027 -35.0027 -35.0021 -35.0021 -34.9811 -34.9811
   -34.9738 -34.9737 -34.9528 -34.9528 -34.9480 -34.9480 -34.9015 -34.9015
   -34.9006 -34.9006 -34.8497 -34.8497 -34.8466 -34.8466 -34.8462 -34.8462
   -34.8451 -34.8451 -34.8320 -34.8320 -34.8029 -34.8029 -34.8029 -34.8029
    11.9919  11.9919  13.5088  13.5088  14.4232  14.4232  14.5911  14.5911
    14.6289  14.6289  14.6298  14.6298  14.7524  14.7524  14.8606  14.8607
    14.8965  14.8965  15.6079  15.6079  15.6287  15.6288  15.7641  15.7641
    15.8043  15.8043  15.8444  15.8445  16.0427  16.0427  16.4300  16.4300
    16.4324  16.4324  16.4559  16.4559  16.5419  16.5419  16.5566  16.5566
    16.5947  16.5947  16.6223  16.6224  16.6283  16.6284  17.6002  17.6002
    17.6363  17.6364  17.6839  17.6839  17.7520  17.7520  17.8370  17.8370
    17.8477  17.8477  17.8481  17.8481  18.1109  18.1110  18.1213  18.1213
    18.1436  18.1436  18.2006  18.2007  18.2774  18.2774  18.2818  18.2818
    18.3813  18.3814  18.5298  18.5298  18.5942  18.5942  18.7323  18.7323
    19.3057  19.3057  19.4038  19.4038  20.2006  20.2006  20.9466  20.9466
    22.2030  22.2030

          k = 0.0556 0.3889 0.3889 ( 12008 PWs)   bands (ev):

   -68.9995 -68.9816 -68.9816 -68.9684 -68.9452 -68.9418 -68.9417 -68.9386
   -68.9360 -68.9352 -68.9352 -68.9340 -68.9165 -68.9076 -68.9076 -68.8938
   -35.2119 -35.1867 -35.1867 -35.1798 -35.1798 -35.1788 -35.1788 -35.1665
   -35.1658 -35.1638 -35.1625 -35.1500 -35.1061 -35.0688 -35.0329 -35.0328
   -35.0264 -35.0263 -35.0154 -35.0125 -35.0071 -34.9922 -34.9921 -34.9908
   -34.9785 -34.9631 -34.9631 -34.9581 -34.9581 -34.9579 -34.9477 -34.9007
   -34.8952 -34.8736 -34.8736 -34.8572 -34.8519 -34.8498 -34.8414 -34.8377
   -34.8363 -34.8363 -34.8320 -34.8320 -34.8030 -34.8030 -34.7918 -34.7916
    11.8759  12.7937  12.7937  13.4138  14.5395  14.5587  14.6030  14.6260
    14.6260  14.7094  14.7094  14.7354  14.7418  14.7418  14.8207  15.0739
    15.0996  15.2048  15.2048  15.5998  15.6267  15.6374  15.7056  15.7056
    15.7092  15.7092  15.7246  15.8033  15.9680  16.2146  16.2335  16.2335
    16.2796  16.3630  16.3876  16.4264  16.4996  16.4996  16.5190  16.5190
    16.5341  16.5341  16.5664  16.6115  16.7540  17.1411  17.1411  17.6223
    17.6880  17.6958  17.6958  17.7444  17.7763  17.7970  17.8214  17.8214
    17.8275  17.9407  17.9935  17.9935  18.0035  18.0036  18.0316  18.0750
    18.0751  18.1020  18.1031  18.1264  18.2001  18.2001  18.2424  18.2880
    18.3626  18.3937  18.3937  18.4769  18.5586  18.5586  18.6013  18.6248
    19.3551  19.3552  19.4241  19.5170  20.2756  21.0305  21.1084  21.1084
    21.8589  21.8589

          k = 0.0556 0.3889-0.5000 ( 11996 PWs)   bands (ev):

   -68.9913 -68.9912 -68.9755 -68.9754 -68.9436 -68.9435 -68.9402 -68.9402
   -68.9356 -68.9355 -68.9346 -68.9346 -68.9116 -68.9116 -68.9000 -68.9000
   -35.1979 -35.1979 -35.1751 -35.1751 -35.1745 -35.1744 -35.1739 -35.1739
   -35.1723 -35.1723 -35.1646 -35.1646 -35.0668 -35.0668 -35.0524 -35.0524
   -35.0211 -35.0210 -35.0060 -35.0060 -34.9938 -34.9938 -34.9871 -34.9871
   -34.9855 -34.9855 -34.9720 -34.9720 -34.9614 -34.9614 -34.9290 -34.9290
   -34.8833 -34.8832 -34.8559 -34.8559 -34.8435 -34.8434 -34.8426 -34.8426
   -34.8417 -34.8417 -34.8339 -34.8339 -34.7946 -34.7946 -34.7946 -34.7946
    12.3061  12.3061  13.1037  13.1037  14.6357  14.6357  14.6405  14.6405
    14.6716  14.6716  14.8305  14.8305  14.8873  14.8873  14.9603  14.9603
    14.9679  14.9679  15.4878  15.4878  15.6347  15.6347  15.6430  15.6430
    15.6526  15.6527  15.7158  15.7158  16.0814  16.0814  16.2809  16.2810
    16.3258  16.3258  16.3629  16.3629  16.3646  16.3647  16.3841  16.3841
    16.5706  16.5706  16.5939  16.5939  16.8393  16.8393  17.4309  17.4309
    17.7262  17.7262  17.7576  17.7576  17.8463  17.8463  17.8489  17.8489
    17.8882  17.8882  17.9212  17.9212  18.0123  18.0123  18.0453  18.0454
    18.0692  18.0693  18.0872  18.0872  18.1290  18.1291  18.3294  18.3294
    18.3443  18.3443  18.4370  18.4370  18.4371  18.4371  18.5881  18.5881
    19.4175  19.4175  19.4660  19.4660  20.6926  20.6926  21.4557  21.4557
    21.7011  21.7011

          k = 0.0556-0.5000-0.5000 ( 11996 PWs)   bands (ev):

   -68.9840 -68.9840 -68.9840 -68.9839 -68.9420 -68.9420 -68.9420 -68.9419
   -68.9350 -68.9350 -68.9350 -68.9349 -68.9052 -68.9052 -68.9052 -68.9051
   -35.1890 -35.1890 -35.1890 -35.1890 -35.1728 -35.1728 -35.1728 -35.1727
   -35.1677 -35.1676 -35.1676 -35.1676 -35.0381 -35.0381 -35.0381 -35.0380
   -35.0273 -35.0273 -35.0273 -35.0273 -35.0029 -35.0029 -35.0029 -35.0029
   -34.9683 -34.9683 -34.9682 -34.9682 -34.9570 -34.9570 -34.9570 -34.9570
   -34.8684 -34.8684 -34.8684 -34.8683 -34.8408 -34.8408 -34.8408 -34.8408
   -34.8379 -34.8378 -34.8378 -34.8378 -34.7918 -34.7918 -34.7918 -34.7918
    12.6884  12.6884  12.6884  12.6884  14.6683  14.6683  14.6683  14.6684
    14.8230  14.8230  14.8230  14.8230  14.9707  14.9707  14.9707  14.9707
    15.2128  15.2128  15.2128  15.2129  15.5966  15.5966  15.5966  15.5966
    15.6514  15.6515  15.6515  15.6515  16.1625  16.1625  16.1625  16.1625
    16.2818  16.2818  16.2818  16.2818  16.3276  16.3276  16.3276  16.3276
    16.5616  16.5616  16.5616  16.5617  17.1216  17.1216  17.1217  17.1217
    17.8402  17.8402  17.8403  17.8403  17.8420  17.8420  17.8420  17.8420
    17.9655  17.9655  17.9655  17.9655  18.0001  18.0001  18.0001  18.0001
    18.0639  18.0639  18.0639  18.0640  18.0955  18.0955  18.0956  18.0956
    18.3772  18.3772  18.3772  18.3773  18.4974  18.4974  18.4974  18.4974
    19.4718  19.4718  19.4718  19.4718  21.1957  21.1957  21.1957  21.1957
    21.9767  21.9767

          k = 0.1667 0.1667 0.1667 ( 12005 PWs)   bands (ev):

   -69.0207 -68.9633 -68.9633 -68.9633 -68.9440 -68.9440 -68.9440 -68.9348
   -68.9337 -68.9337 -68.9336 -68.9320 -68.9252 -68.9252 -68.9252 -68.8782
   -35.2392 -35.2391 -35.2391 -35.2202 -35.2202 -35.2202 -35.1265 -35.1265
   -35.1242 -35.1174 -35.1174 -35.1173 -35.0817 -35.0737 -35.0737 -35.0402
   -35.0401 -35.0401 -35.0015 -35.0015 -35.0015 -34.9658 -34.9658 -34.9658
   -34.9558 -34.9558 -34.9428 -34.9427 -34.9427 -34.9396 -34.9396 -34.9396
   -34.9127 -34.9127 -34.9127 -34.9049 -34.8671 -34.8671 -34.8671 -34.8421
   -34.8173 -34.8173 -34.8173 -34.7991 -34.7991 -34.7991 -34.7964 -34.7964
    10.7917  13.6056  13.6056  13.6057  14.0498  14.0498  14.0498  14.1870
    14.1870  14.2203  14.2203  14.2203  14.7367  14.7367  14.7367  15.3230
    15.4235  15.4235  15.4235  15.5934  15.5934  15.6639  15.6639  15.6639
    15.7644  15.7644  15.7645  15.9470  15.9470  15.9537  16.2326  16.2327
    16.2327  16.6723  16.6723  16.7062  16.7062  16.7062  17.0544  17.0790
    17.0790  17.0790  17.2148  17.2148  17.2148  17.2705  17.2705  17.2705
    17.6415  17.6416  17.6416  17.8638  17.8638  17.8638  17.9437  17.9437
    17.9784  17.9784  17.9784  18.1337  18.1338  18.1338  18.1784  18.1784
    18.1784  18.1839  18.1839  18.1839  18.2163  18.2163  18.2420  18.2420
    18.6863  18.6940  18.6940  18.6940  18.7413  18.7413  18.7413  19.1783
    19.1783  19.1783  19.2336  19.2336  20.0571  20.0571  20.0571  20.7181
    20.7181  20.7181

          k = 0.1667 0.1667 0.2778 ( 11953 PWs)   bands (ev):

   -69.0156 -68.9761 -68.9615 -68.9614 -68.9479 -68.9479 -68.9429 -68.9364
   -68.9333 -68.9318 -68.9312 -68.9311 -68.9257 -68.9257 -68.9138 -68.8819
   -35.2297 -35.2297 -35.2250 -35.2102 -35.1983 -35.1983 -35.1419 -35.1403
   -35.1403 -35.1353 -35.1318 -35.1156 -35.1112 -35.0697 -35.0697 -35.0626
   -35.0551 -35.0298 -35.0056 -35.0022 -35.0022 -34.9786 -34.9753 -34.9753
   -34.9690 -34.9624 -34.9451 -34.9322 -34.9322 -34.9188 -34.9178 -34.9178
   -34.9150 -34.9149 -34.8852 -34.8841 -34.8671 -34.8492 -34.8492 -34.8457
   -34.8315 -34.8315 -34.8238 -34.8114 -34.8056 -34.8008 -34.8008 -34.7964
    11.0454  13.0225  13.7297  13.7297  14.0377  14.0377  14.2406  14.2915
    14.3024  14.3376  14.3376  14.3898  14.7805  14.7805  14.8054  15.1402
    15.2465  15.4630  15.4630  15.4667  15.5578  15.6361  15.7140  15.7341
    15.7341  15.7857  15.8940  15.8941  16.0419  16.1406  16.1406  16.1521
    16.4122  16.5441  16.5441  16.6041  16.6146  16.6523  16.8160  16.8160
    16.8466  16.8466  17.0874  17.1943  17.2609  17.3027  17.3919  17.3919
    17.4444  17.4444  17.4762  17.6884  17.6884  17.8518  17.8795  17.9061
    17.9062  17.9400  17.9983  18.0284  18.0722  18.0722  18.1008  18.1840
    18.1986  18.2112  18.2305  18.2679  18.2943  18.2943  18.3228  18.3228
    18.3990  18.4627  18.8079  18.8079  18.8233  18.8311  18.8311  18.8762
    19.0234  19.2483  19.2483  19.2723  19.7624  19.7624  20.7106  20.9387
    20.9387  21.5682

          k = 0.1667 0.1667 0.3889 ( 11970 PWs)   bands (ev):

   -69.0082 -68.9881 -68.9589 -68.9588 -68.9518 -68.9518 -68.9415 -68.9381
   -68.9328 -68.9320 -68.9291 -68.9291 -68.9265 -68.9264 -68.9036 -68.8875
   -35.2135 -35.2135 -35.2043 -35.1964 -35.1705 -35.1705 -35.1665 -35.1665
   -35.1607 -35.1465 -35.1411 -35.1403 -35.1040 -35.1040 -35.1000 -35.0564
   -35.0421 -35.0353 -34.9987 -34.9987 -34.9954 -34.9946 -34.9845 -34.9844
   -34.9692 -34.9627 -34.9520 -34.9264 -34.9264 -34.9180 -34.9180 -34.8977
   -34.8928 -34.8928 -34.8850 -34.8646 -34.8600 -34.8488 -34.8488 -34.8339
   -34.8323 -34.8323 -34.8308 -34.8271 -34.8198 -34.8071 -34.8071 -34.8017
    11.4148  12.4324  13.8650  13.8650  14.0195  14.0195  14.4444  14.4539
    14.4766  14.4766  14.5082  14.6212  14.7386  14.7386  14.7482  14.8760
    15.1101  15.1673  15.5535  15.6022  15.6356  15.6356  15.6567  15.6596
    15.8480  15.8480  16.0322  16.0322  16.0901  16.0902  16.2993  16.3915
    16.4216  16.4216  16.4428  16.4428  16.5219  16.5570  16.5576  16.6028
    16.6028  16.6234  16.8895  16.8895  16.8913  17.0361  17.3562  17.4148
    17.4974  17.6474  17.6474  17.7220  17.7282  17.7282  17.7361  17.8365
    17.8366  17.9772  17.9772  18.0742  18.0884  18.0896  18.1150  18.1549
    18.1740  18.1908  18.1993  18.2052  18.2894  18.3165  18.3800  18.3800
    18.4213  18.4214  18.5663  18.7515  18.9761  18.9761  18.9869  18.9869
    19.0370  19.2214  19.2214  19.2460  19.4890  19.4890  21.2021  21.2021
    21.4006  21.6018

          k = 0.1667 0.1667-0.5000 ( 11958 PWs)   bands (ev):

   -68.9990 -68.9989 -68.9556 -68.9556 -68.9556 -68.9555 -68.9398 -68.9398
   -68.9323 -68.9323 -68.9276 -68.9276 -68.9275 -68.9275 -68.8948 -68.8947
   -35.1918 -35.1918 -35.1918 -35.1918 -35.1792 -35.1792 -35.1778 -35.1778
   -35.1430 -35.1430 -35.1384 -35.1384 -35.1383 -35.1383 -35.0801 -35.0800
   -35.0192 -35.0192 -35.0146 -35.0146 -34.9924 -34.9924 -34.9923 -34.9923
   -34.9587 -34.9586 -34.9325 -34.9325 -34.9218 -34.9218 -34.9218 -34.9218
   -34.8693 -34.8693 -34.8693 -34.8693 -34.8552 -34.8552 -34.8476 -34.8476
   -34.8381 -34.8381 -34.8177 -34.8177 -34.8177 -34.8177 -34.8123 -34.8123
    11.8848  11.8849  13.9675  13.9675  13.9675  13.9675  14.6151  14.6151
    14.6207  14.6207  14.6207  14.6207  14.6413  14.6414  14.8290  14.8290
    14.8811  14.8811  15.5716  15.5716  15.6265  15.6265  15.9149  15.9149
    15.9149  15.9149  15.9867  15.9867  15.9867  15.9867  16.3914  16.3914
    16.3914  16.3914  16.5333  16.5333  16.5333  16.5334  16.5391  16.5391
    16.5837  16.5838  16.6376  16.6377  16.6477  16.6477  17.5380  17.5380
    17.5679  17.5679  17.7763  17.7763  17.7763  17.7763  17.7801  17.7801
    17.8326  17.8326  17.8326  17.8326  18.1441  18.1441  18.1501  18.1501
    18.1689  18.1690  18.1983  18.1983  18.4067  18.4067  18.4269  18.4269
    18.4269  18.4269  18.4527  18.4527  19.1262  19.1262  19.1262  19.1262
    19.1641  19.1641  19.2216  19.2216  19.2216  19.2216  21.4486  21.4486
    21.4486  21.4486

          k = 0.1667 0.2778 0.2778 ( 11979 PWs)   bands (ev):

   -69.0108 -68.9735 -68.9735 -68.9597 -68.9539 -68.9467 -68.9467 -68.9385
   -68.9311 -68.9310 -68.9309 -68.9265 -68.9261 -68.9151 -68.9150 -68.8854
   -35.2247 -35.2163 -35.2163 -35.1919 -35.1919 -35.1731 -35.1522 -35.1516
   -35.1515 -35.1512 -35.1408 -35.1195 -35.1127 -35.0895 -35.0644 -35.0410
   -35.0362 -35.0362 -35.0305 -35.0304 -35.0106 -34.9904 -34.9904 -34.9899
   -34.9502 -34.9434 -34.9433 -34.9371 -34.9371 -34.9200 -34.9181 -34.9052
   -34.8979 -34.8944 -34.8880 -34.8880 -34.8691 -34.8485 -34.8399 -34.8332
   -34.8332 -34.8312 -34.8312 -34.8128 -34.8128 -34.8115 -34.7983 -34.7966
    11.2930  13.1885  13.1885  13.8726  13.9361  14.2362  14.2362  14.3875
    14.4206  14.4629  14.5043  14.5043  14.8552  14.8553  14.8844  15.2158
    15.2158  15.2171  15.4213  15.4288  15.6015  15.6981  15.6981  15.7811
    15.8092  15.8130  15.8130  15.9311  16.0164  16.0416  16.1138  16.2836
    16.2836  16.4679  16.4697  16.4759  16.4759  16.5239  16.6005  16.6759
    16.7287  16.7287  16.9918  16.9918  17.0750  17.0750  17.1460  17.3637
    17.4734  17.4735  17.5334  17.7772  17.8405  17.8608  17.8799  17.8800
    17.9767  17.9767  17.9773  18.0388  18.0554  18.0554  18.0894  18.1461
    18.1716  18.1716  18.1762  18.2062  18.2292  18.2292  18.2324  18.2963
    18.3779  18.4625  18.4625  18.8225  18.9164  18.9280  18.9280  18.9958
    18.9959  19.0232  19.2648  19.3325  19.4321  20.3309  20.3309  21.2242
    22.0497  22.0497

          k = 0.1667 0.2778 0.3889 ( 11972 PWs)   bands (ev):

   -69.0038 -68.9848 -68.9697 -68.9597 -68.9571 -68.9505 -68.9450 -68.9407
   -68.9308 -68.9307 -68.9291 -68.9267 -68.9226 -68.9169 -68.9055 -68.8906
   -35.2126 -35.2024 -35.1969 -35.1832 -35.1740 -35.1687 -35.1671 -35.1624
   -35.1561 -35.1496 -35.1453 -35.1425 -35.1148 -35.0992 -35.0714 -35.0567
   -35.0510 -35.0251 -35.0182 -35.0129 -35.0097 -35.0036 -35.0011 -35.0000
   -34.9687 -34.9487 -34.9422 -34.9306 -34.9269 -34.9216 -34.9170 -34.9093
   -34.8931 -34.8786 -34.8782 -34.8687 -34.8635 -34.8557 -34.8455 -34.8374
   -34.8303 -34.8302 -34.8245 -34.8173 -34.8163 -34.8162 -34.8004 -34.7983
    11.6524  12.6312  13.4010  13.8009  14.0340  14.2207  14.5148  14.5177
    14.5851  14.5946  14.6432  14.7287  14.8020  14.8169  14.8960  14.9850
    15.1471  15.1844  15.4277  15.5257  15.5946  15.6548  15.7025  15.7260
    15.7918  15.8738  15.8845  15.9438  16.0757  16.0843  16.1522  16.2437
    16.2592  16.3617  16.3706  16.4085  16.4161  16.4472  16.4629  16.4968
    16.5551  16.5939  16.6649  16.7118  16.7235  16.7742  17.1981  17.5557
    17.5571  17.6614  17.6806  17.7688  17.7851  17.8030  17.8372  17.8390
    17.9275  17.9611  17.9655  17.9830  18.0340  18.0604  18.0714  18.1217
    18.1432  18.1776  18.2008  18.2065  18.2123  18.2534  18.2783  18.2983
    18.3621  18.3806  18.5938  18.6648  18.6736  18.8567  18.9473  19.1313
    19.1372  19.1394  19.2688  19.3189  19.3289  19.9817  20.9401  21.5611
    22.1376  22.2065

          k = 0.1667 0.2778-0.5000 ( 11982 PWs)   bands (ev):

   -68.9951 -68.9950 -68.9651 -68.9651 -68.9540 -68.9539 -68.9430 -68.9429
   -68.9307 -68.9306 -68.9278 -68.9277 -68.9194 -68.9194 -68.8973 -68.8973
   -35.1953 -35.1953 -35.1853 -35.1853 -35.1729 -35.1729 -35.1728 -35.1728
   -35.1553 -35.1553 -35.1420 -35.1420 -35.1079 -35.1079 -35.0800 -35.0799
   -35.0310 -35.0309 -35.0159 -35.0158 -35.0092 -35.0092 -34.9938 -34.9938
   -34.9631 -34.9631 -34.9466 -34.9466 -34.9255 -34.9254 -34.9004 -34.9003
   -34.8918 -34.8917 -34.8606 -34.8606 -34.8525 -34.8525 -34.8448 -34.8448
   -34.8421 -34.8420 -34.8221 -34.8221 -34.8069 -34.8069 -34.8051 -34.8051
    12.1069  12.1069  13.6180  13.6180  14.1594  14.1594  14.6690  14.6691
    14.7190  14.7190  14.7759  14.7759  14.7881  14.7881  14.8467  14.8468
    14.9687  14.9687  15.6152  15.6153  15.6700  15.6700  15.7335  15.7335
    15.7552  15.7552  15.8864  15.8864  16.0040  16.0040  16.3568  16.3568
    16.3696  16.3696  16.3966  16.3966  16.4038  16.4038  16.4231  16.4231
    16.4722  16.4722  16.5051  16.5051  16.5070  16.5070  17.4636  17.4636
    17.6693  17.6693  17.7676  17.7676  17.8030  17.8030  17.8309  17.8309
    17.8351  17.8351  17.8836  17.8836  18.1053  18.1053  18.1274  18.1274
    18.1399  18.1400  18.2078  18.2079  18.2418  18.2418  18.3512  18.3512
    18.3950  18.3950  18.4792  18.4792  18.8563  18.8563  18.9114  18.9114
    19.2250  19.2250  19.2573  19.2573  19.6451  19.6451  21.5674  21.5674
    21.8896  21.8896

          k = 0.1667 0.3889 0.3889 ( 11988 PWs)   bands (ev):

   -68.9975 -68.9801 -68.9800 -68.9672 -68.9547 -68.9485 -68.9485 -68.9435
   -68.9299 -68.9292 -68.9292 -68.9273 -68.9170 -68.9084 -68.9084 -68.8951
   -35.2051 -35.1872 -35.1872 -35.1748 -35.1748 -35.1705 -35.1664 -35.1664
   -35.1634 -35.1605 -35.1535 -35.1299 -35.1093 -35.0882 -35.0518 -35.0495
   -35.0495 -35.0358 -35.0358 -35.0235 -35.0217 -35.0209 -35.0209 -34.9930
   -34.9614 -34.9427 -34.9422 -34.9421 -34.9351 -34.9350 -34.9256 -34.8940
   -34.8915 -34.8708 -34.8708 -34.8643 -34.8638 -34.8486 -34.8436 -34.8436
   -34.8357 -34.8294 -34.8294 -34.8288 -34.8062 -34.8062 -34.7981 -34.7970
    11.9945  12.9039  12.9039  13.5289  14.2381  14.4984  14.4984  14.6126
    14.6911  14.7692  14.7969  14.7969  14.8628  14.8628  15.0380  15.0777
    15.1711  15.2082  15.2083  15.4642  15.6359  15.6636  15.7261  15.7261
    15.7379  15.7379  15.8012  15.8383  15.9429  16.0070  16.1903  16.1952
    16.1953  16.2771  16.3360  16.3474  16.3475  16.3815  16.3983  16.3983
    16.4102  16.4200  16.4200  16.4992  16.5872  16.9052  16.9053  17.4479
    17.7113  17.7113  17.7711  17.7728  17.8208  17.8287  17.9332  17.9349
    17.9910  17.9910  18.0114  18.0114  18.0176  18.0302  18.0302  18.0952
    18.1047  18.1647  18.1647  18.1795  18.2199  18.2600  18.2601  18.2918
    18.2918  18.3454  18.4244  18.4719  18.7083  18.7083  18.7659  18.8408
    19.2439  19.2439  19.3039  19.3612  19.7018  20.5128  20.5128  21.6240
    21.9807  22.7580

          k = 0.1667 0.3889-0.5000 ( 11980 PWs)   bands (ev):

   -68.9895 -68.9894 -68.9741 -68.9741 -68.9518 -68.9517 -68.9461 -68.9461
   -68.9295 -68.9294 -68.9281 -68.9281 -68.9122 -68.9122 -68.9011 -68.9010
   -35.1918 -35.1918 -35.1775 -35.1774 -35.1697 -35.1697 -35.1696 -35.1696
   -35.1646 -35.1646 -35.1480 -35.1480 -35.0731 -35.0731 -35.0709 -35.0708
   -35.0396 -35.0396 -35.0374 -35.0373 -35.0261 -35.0261 -34.9986 -34.9986
   -34.9676 -34.9676 -34.9390 -34.9390 -34.9298 -34.9297 -34.9161 -34.9161
   -34.8812 -34.8812 -34.8527 -34.8526 -34.8515 -34.8515 -34.8458 -34.8458
   -34.8444 -34.8444 -34.8287 -34.8287 -34.7999 -34.7999 -34.7992 -34.7992
    12.4215  12.4215  13.2173  13.2173  14.4108  14.4108  14.7152  14.7152
    14.7595  14.7595  14.8124  14.8124  14.9838  14.9839  14.9981  14.9981
    15.0769  15.0769  15.4914  15.4914  15.5971  15.5971  15.6417  15.6418
    15.6687  15.6687  15.7834  15.7834  16.0519  16.0519  16.1530  16.1530
    16.2454  16.2454  16.2514  16.2514  16.2555  16.2555  16.2963  16.2963
    16.4520  16.4521  16.4560  16.4560  16.6385  16.6385  17.1521  17.1522
    17.7795  17.7796  17.8483  17.8483  17.8847  17.8847  17.8962  17.8962
    17.9934  17.9934  18.0187  18.0187  18.0402  18.0402  18.0797  18.0798
    18.1207  18.1207  18.1240  18.1240  18.2339  18.2340  18.2375  18.2375
    18.3060  18.3060  18.5339  18.5339  18.5570  18.5570  18.7274  18.7274
    19.3001  19.3001  19.3289  19.3289  20.1022  20.1022  21.0619  21.0619
    22.4019  22.4019

          k = 0.1667-0.5000-0.5000 ( 12000 PWs)   bands (ev):

   -68.9824 -68.9824 -68.9824 -68.9823 -68.9491 -68.9491 -68.9491 -68.9491
   -68.9286 -68.9286 -68.9286 -68.9285 -68.9061 -68.9061 -68.9061 -68.9060
   -35.1829 -35.1829 -35.1829 -35.1829 -35.1712 -35.1712 -35.1712 -35.1712
   -35.1560 -35.1560 -35.1560 -35.1559 -35.0561 -35.0561 -35.0561 -35.0560
   -35.0375 -35.0375 -35.0375 -35.0375 -35.0360 -35.0360 -35.0360 -35.0360
   -34.9415 -34.9415 -34.9415 -34.9415 -34.9343 -34.9343 -34.9343 -34.9343
   -34.8648 -34.8648 -34.8648 -34.8647 -34.8470 -34.8470 -34.8470 -34.8469
   -34.8372 -34.8372 -34.8372 -34.8372 -34.7975 -34.7975 -34.7975 -34.7975
    12.8037  12.8037  12.8037  12.8037  14.6590  14.6590  14.6590  14.6590
    14.7519  14.7519  14.7519  14.7519  15.1340  15.1340  15.1340  15.1340
    15.2310  15.2310  15.2310  15.2310  15.5430  15.5431  15.5431  15.5431
    15.7114  15.7114  15.7114  15.7114  16.1262  16.1262  16.1262  16.1263
    16.1345  16.1345  16.1345  16.1345  16.2379  16.2379  16.2379  16.2379
    16.4323  16.4323  16.4323  16.4324  16.8703  16.8703  16.8703  16.8703
    17.8519  17.8519  17.8519  17.8520  17.9610  17.9611  17.9611  17.9611
    18.0499  18.0499  18.0499  18.0500  18.0606  18.0606  18.0606  18.0606
    18.0760  18.0761  18.0761  18.0761  18.2705  18.2705  18.2705  18.2705
    18.2829  18.2829  18.2830  18.2830  18.6044  18.6044  18.6044  18.6044
    19.3413  19.3413  19.3413  19.3413  20.5758  20.5758  20.5758  20.5759
    22.9289  22.9289

          k = 0.2778 0.2778 0.2778 ( 11965 PWs)   bands (ev):

   -69.0062 -68.9710 -68.9710 -68.9710 -68.9523 -68.9523 -68.9523 -68.9415
   -68.9295 -68.9267 -68.9267 -68.9267 -68.9162 -68.9162 -68.9161 -68.8885
   -35.2109 -35.2109 -35.2109 -35.1704 -35.1704 -35.1704 -35.1589 -35.1589
   -35.1589 -35.1569 -35.1294 -35.1294 -35.1010 -35.1010 -35.0585 -35.0584
   -35.0584 -35.0407 -35.0406 -35.0406 -35.0178 -35.0083 -35.0083 -35.0083
   -34.9221 -34.9221 -34.9221 -34.9211 -34.9210 -34.9210 -34.9209 -34.9144
   -34.9144 -34.8895 -34.8895 -34.8895 -34.8585 -34.8456 -34.8456 -34.8456
   -34.8257 -34.8257 -34.8256 -34.8108 -34.8107 -34.8107 -34.8064 -34.8064
    11.5361  13.3653  13.3653  13.3653  14.1476  14.1476  14.1476  14.5097
    14.5097  14.6276  14.6276  14.6276  14.9865  14.9865  14.9865  15.2079
    15.2079  15.2079  15.2291  15.5953  15.5953  15.6087  15.7444  15.7444
    15.7444  15.9235  15.9235  15.9235  15.9337  15.9337  16.1558  16.1558
    16.1558  16.3778  16.3778  16.3778  16.4113  16.4114  16.4114  16.4842
    16.4842  16.7473  16.7473  16.7473  16.8074  16.8074  16.8074  17.5546
    17.5717  17.5718  17.5718  17.7623  17.9199  17.9199  17.9469  17.9469
    17.9469  17.9787  17.9787  17.9787  18.0332  18.0332  18.0332  18.1518
    18.1519  18.1519  18.1725  18.1725  18.2690  18.2690  18.2690  18.2922
    18.2922  18.6189  18.6189  18.6189  18.9653  18.9653  18.9653  19.0389
    19.0389  19.0389  19.0559  19.0559  19.9190  19.9190  19.9190  22.2084
    22.3430  22.3430

          k = 0.2778 0.2778 0.3889 ( 11979 PWs)   bands (ev):

   -68.9997 -68.9817 -68.9674 -68.9674 -68.9579 -68.9578 -68.9502 -68.9446
   -68.9283 -68.9270 -68.9231 -68.9230 -68.9178 -68.9178 -68.9073 -68.8934
   -35.2000 -35.1999 -35.1909 -35.1709 -35.1709 -35.1674 -35.1606 -35.1595
   -35.1447 -35.1447 -35.1441 -35.1351 -35.1136 -35.0859 -35.0858 -35.0792
   -35.0682 -35.0425 -35.0425 -35.0310 -35.0240 -35.0240 -35.0240 -34.9940
   -34.9532 -34.9450 -34.9240 -34.9207 -34.9098 -34.9098 -34.8989 -34.8988
   -34.8933 -34.8933 -34.8820 -34.8633 -34.8605 -34.8605 -34.8504 -34.8442
   -34.8296 -34.8212 -34.8199 -34.8199 -34.8149 -34.8118 -34.8118 -34.8049
    11.8876  12.8351  13.5937  13.5937  14.0175  14.0175  14.4477  14.6387
    14.6687  14.7615  14.7615  14.8484  14.9579  14.9917  14.9917  14.9959
    15.2143  15.2166  15.3702  15.3703  15.6145  15.6981  15.7535  15.7966
    15.8277  15.8277  15.8338  15.9585  15.9585  16.0462  16.0462  16.0706
    16.1754  16.1754  16.2665  16.2873  16.2873  16.3219  16.3286  16.3890
    16.4275  16.4513  16.5030  16.5030  16.5121  16.5122  16.8992  17.4353
    17.6492  17.7092  17.7092  17.7715  17.8396  17.9436  17.9436  17.9640
    17.9640  17.9953  17.9953  18.0002  18.0572  18.0654  18.1349  18.1580
    18.1670  18.1688  18.1698  18.1698  18.2261  18.2507  18.2609  18.2609
    18.3025  18.3923  18.7647  18.7897  18.9039  18.9039  18.9884  18.9885
    19.0678  19.0679  19.0726  19.1265  19.5608  19.5608  20.4585  21.6017
    22.6857  22.6857

          k = 0.2778 0.2778-0.5000 ( 11978 PWs)   bands (ev):

   -68.9914 -68.9914 -68.9630 -68.9630 -68.9630 -68.9629 -68.9476 -68.9475
   -68.9275 -68.9274 -68.9201 -68.9201 -68.9201 -68.9200 -68.8996 -68.8996
   -35.1857 -35.1857 -35.1856 -35.1856 -35.1653 -35.1652 -35.1640 -35.1640
   -35.1544 -35.1543 -35.1155 -35.1155 -35.1155 -35.1155 -35.0928 -35.0928
   -35.0554 -35.0554 -35.0362 -35.0362 -35.0361 -35.0361 -34.9885 -34.9885
   -34.9694 -34.9694 -34.9239 -34.9239 -34.9003 -34.9003 -34.9002 -34.9002
   -34.8785 -34.8785 -34.8785 -34.8785 -34.8534 -34.8534 -34.8455 -34.8455
   -34.8404 -34.8403 -34.8148 -34.8148 -34.8148 -34.8148 -34.8079 -34.8079
    12.3296  12.3296  13.8270  13.8270  13.8270  13.8270  14.8031  14.8031
    14.8141  14.8141  14.8337  14.8337  14.8909  14.8909  14.8909  14.8909
    15.0782  15.0782  15.6517  15.6517  15.6654  15.6654  15.6654  15.6654
    15.7108  15.7108  15.9359  15.9359  15.9359  15.9359  16.1207  16.1207
    16.2050  16.2050  16.3054  16.3054  16.3054  16.3054  16.3132  16.3132
    16.3132  16.3132  16.3334  16.3334  16.3553  16.3554  17.1373  17.1373
    17.7446  17.7447  17.8486  17.8486  17.8486  17.8486  17.9670  17.9670
    17.9670  17.9670  18.0040  18.0040  18.0945  18.0945  18.0988  18.0989
    18.1640  18.1640  18.1722  18.1723  18.2189  18.2189  18.2189  18.2189
    18.5037  18.5037  18.5471  18.5471  19.0389  19.0389  19.0389  19.0389
    19.1298  19.1299  19.2252  19.2252  19.2252  19.2252  21.0215  21.0215
    22.9848  22.9848

          k = 0.2778 0.3889 0.3889 ( 11986 PWs)   bands (ev):

   -68.9936 -68.9772 -68.9771 -68.9650 -68.9641 -68.9553 -68.9552 -68.9484
   -68.9263 -68.9238 -68.9238 -68.9193 -68.9178 -68.9099 -68.9099 -68.8976
   -35.1920 -35.1820 -35.1820 -35.1699 -35.1682 -35.1682 -35.1566 -35.1488
   -35.1478 -35.1478 -35.1389 -35.1161 -35.1106 -35.1049 -35.0869 -35.0697
   -35.0697 -35.0548 -35.0532 -35.0532 -35.0479 -35.0478 -35.0446 -34.9850
   -34.9692 -34.9215 -34.9214 -34.9098 -34.9098 -34.9086 -34.8953 -34.8920
   -34.8813 -34.8785 -34.8705 -34.8678 -34.8678 -34.8536 -34.8536 -34.8480
   -34.8287 -34.8282 -34.8282 -34.8229 -34.8125 -34.8125 -34.8101 -34.8074
    12.2253  13.1153  13.1153  13.7517  13.8478  14.3227  14.3227  14.7498
    14.8351  14.8599  14.9653  14.9653  14.9862  14.9862  15.0398  15.1930
    15.2109  15.2109  15.2891  15.3221  15.6656  15.6982  15.7696  15.7699
    15.7699  15.7955  15.7965  15.7965  15.8968  15.9425  15.9858  16.1055
    16.1055  16.1283  16.1284  16.1635  16.1798  16.2112  16.2113  16.2542
    16.2542  16.2851  16.3135  16.3364  16.3489  16.6142  16.6142  17.1096
    17.7655  17.7655  17.7991  17.8745  17.9528  17.9897  17.9973  17.9973
    18.0051  18.0173  18.0891  18.0891  18.0957  18.0977  18.1068  18.1562
    18.1563  18.1605  18.1664  18.1664  18.2034  18.2034  18.2338  18.2723
    18.4468  18.5709  18.5709  18.6820  18.8075  18.8075  18.8725  19.0736
    19.0736  19.0928  19.1159  19.2061  19.2613  20.0349  20.0349  21.0525
    23.1044  23.7282

          k = 0.2778 0.3889-0.5000 ( 11978 PWs)   bands (ev):

   -68.9861 -68.9860 -68.9715 -68.9715 -68.9600 -68.9599 -68.9520 -68.9520
   -68.9249 -68.9249 -68.9212 -68.9212 -68.9135 -68.9134 -68.9031 -68.9031
   -35.1804 -35.1804 -35.1736 -35.1736 -35.1599 -35.1599 -35.1597 -35.1597
   -35.1520 -35.1520 -35.1263 -35.1263 -35.0931 -35.0931 -35.0848 -35.0848
   -35.0709 -35.0709 -35.0609 -35.0609 -35.0569 -35.0568 -35.0190 -35.0190
   -34.9449 -34.9449 -34.9086 -34.9086 -34.9003 -34.9002 -34.8991 -34.8990
   -34.8777 -34.8777 -34.8660 -34.8660 -34.8493 -34.8493 -34.8488 -34.8488
   -34.8458 -34.8458 -34.8259 -34.8259 -34.8102 -34.8102 -34.8087 -34.8087
    12.6450  12.6450  13.4366  13.4366  14.1124  14.1124  14.6862  14.6862
    14.8653  14.8653  14.9284  14.9284  15.0293  15.0294  15.1243  15.1243
    15.2149  15.2149  15.4950  15.4950  15.5570  15.5570  15.6657  15.6657
    15.7122  15.7122  15.8549  15.8549  15.9484  15.9484  15.9984  15.9985
    16.0358  16.0358  16.1112  16.1113  16.1554  16.1554  16.1975  16.1975
    16.2503  16.2504  16.2859  16.2859  16.3678  16.3678  16.8237  16.8237
    17.8314  17.8314  17.8786  17.8786  17.9030  17.9031  18.0461  18.0461
    18.0593  18.0593  18.1047  18.1047  18.1146  18.1146  18.1176  18.1176
    18.1632  18.1632  18.2000  18.2000  18.2081  18.2081  18.2818  18.2818
    18.4454  18.4455  18.5920  18.5920  18.8246  18.8246  18.8807  18.8807
    19.1053  19.1054  19.1070  19.1070  19.6401  19.6401  20.5340  20.5340
    23.5021  23.5021

          k = 0.2778-0.5000-0.5000 ( 11972 PWs)   bands (ev):

   -68.9793 -68.9793 -68.9793 -68.9792 -68.9563 -68.9563 -68.9563 -68.9562
   -68.9228 -68.9228 -68.9228 -68.9227 -68.9078 -68.9078 -68.9078 -68.9077
   -35.1705 -35.1705 -35.1705 -35.1705 -35.1628 -35.1628 -35.1628 -35.1628
   -35.1389 -35.1389 -35.1389 -35.1389 -35.0809 -35.0809 -35.0809 -35.0808
   -35.0707 -35.0707 -35.0707 -35.0707 -35.0517 -35.0516 -35.0516 -35.0516
   -34.9214 -34.9214 -34.9213 -34.9213 -34.9019 -34.9019 -34.9019 -34.9019
   -34.8591 -34.8591 -34.8591 -34.8590 -34.8561 -34.8561 -34.8561 -34.8561
   -34.8385 -34.8385 -34.8385 -34.8385 -34.8087 -34.8087 -34.8087 -34.8087
    13.0269  13.0269  13.0269  13.0269  14.4270  14.4270  14.4270  14.4270
    14.9114  14.9114  14.9115  14.9115  15.2657  15.2657  15.2657  15.2657
    15.3196  15.3197  15.3197  15.3197  15.4876  15.4876  15.4876  15.4876
    15.7793  15.7793  15.7793  15.7793  15.9618  15.9618  15.9618  15.9619
    16.0509  16.0509  16.0509  16.0509  16.0823  16.0823  16.0824  16.0824
    16.2457  16.2457  16.2457  16.2458  16.5545  16.5545  16.5545  16.5545
    17.8899  17.8899  17.8899  17.8900  17.9750  17.9751  17.9751  17.9751
    18.0527  18.0527  18.0527  18.0528  18.1806  18.1806  18.1806  18.1807
    18.2020  18.2020  18.2020  18.2020  18.2801  18.2801  18.2801  18.2802
    18.5721  18.5721  18.5721  18.5721  18.6686  18.6686  18.6686  18.6687
    19.1205  19.1205  19.1205  19.1205  20.0776  20.0776  20.0776  20.0776
    24.0298  24.0298

          k = 0.3889 0.3889 0.3889 ( 11968 PWs)   bands (ev):

   -68.9881 -68.9730 -68.9730 -68.9730 -68.9618 -68.9618 -68.9617 -68.9532
   -68.9234 -68.9191 -68.9191 -68.9191 -68.9122 -68.9122 -68.9121 -68.9012
   -35.1729 -35.1729 -35.1729 -35.1625 -35.1625 -35.1624 -35.1468 -35.1317
   -35.1317 -35.1253 -35.1253 -35.1253 -35.1195 -35.1195 -35.0839 -35.0839
   -35.0839 -35.0757 -35.0757 -35.0757 -35.0704 -35.0704 -35.0704 -35.0137
   -34.9453 -34.9009 -34.9009 -34.9009 -34.8886 -34.8886 -34.8886 -34.8773
   -34.8773 -34.8676 -34.8676 -34.8676 -34.8665 -34.8665 -34.8665 -34.8509
   -34.8275 -34.8275 -34.8275 -34.8232 -34.8232 -34.8198 -34.8198 -34.8198
    12.5550  13.4071  13.4071  13.4071  14.0663  14.0663  14.0663  14.8130
    14.9294  14.9294  15.0934  15.0935  15.0935  15.1804  15.1804  15.1804
    15.2242  15.2242  15.2242  15.4324  15.7134  15.7134  15.7334  15.7334
    15.7835  15.7835  15.7835  15.8374  15.8374  15.8374  15.9347  15.9347
    15.9347  16.0404  16.0404  16.0404  16.0747  16.0747  16.0747  16.1076
    16.1076  16.1076  16.2149  16.2149  16.3345  16.3346  16.3346  16.7831
    17.8462  17.8462  17.8462  17.9491  17.9491  17.9926  17.9926  17.9926
    18.1028  18.1028  18.1080  18.1080  18.1080  18.1330  18.1330  18.1330
    18.1827  18.1827  18.1827  18.2900  18.3092  18.3093  18.3093  18.4145
    18.4145  18.8326  18.8326  18.8506  18.8507  18.8507  18.9014  18.9015
    18.9015  18.9256  18.9256  18.9256  19.6271  19.6271  19.6271  20.5460
    24.3605  24.3605

          k = 0.3889 0.3889-0.5000 ( 11970 PWs)   bands (ev):

   -68.9812 -68.9811 -68.9678 -68.9678 -68.9678 -68.9677 -68.9578 -68.9578
   -68.9210 -68.9210 -68.9153 -68.9152 -68.9152 -68.9152 -68.9062 -68.9061
   -35.1642 -35.1642 -35.1642 -35.1642 -35.1496 -35.1495 -35.1485 -35.1485
   -35.1361 -35.1361 -35.1099 -35.1098 -35.1004 -35.1004 -35.1004 -35.1003
   -35.0962 -35.0962 -35.0845 -35.0845 -35.0845 -35.0845 -35.0446 -35.0446
   -34.9223 -34.9223 -34.8837 -34.8836 -34.8822 -34.8822 -34.8822 -34.8822
   -34.8738 -34.8738 -34.8738 -34.8738 -34.8571 -34.8571 -34.8503 -34.8502
   -34.8434 -34.8433 -34.8253 -34.8253 -34.8253 -34.8253 -34.8200 -34.8200
    12.9607  12.9607  13.7426  13.7426  13.7426  13.7426  14.4420  14.4420
    15.0467  15.0468  15.1115  15.1115  15.1646  15.1646  15.1646  15.1646
    15.3575  15.3576  15.4904  15.4904  15.4905  15.4905  15.7169  15.7169
    15.7628  15.7628  15.7730  15.7731  15.8494  15.8494  15.9298  15.9298
    15.9298  15.9298  16.0443  16.0443  16.0443  16.0443  16.0976  16.0976
    16.0976  16.0976  16.1277  16.1277  16.1319  16.1319  16.5062  16.5062
    17.8994  17.8994  17.9327  17.9328  17.9328  17.9328  18.0373  18.0373
    18.0452  18.0452  18.1067  18.1067  18.1085  18.1085  18.1085  18.1085
    18.2829  18.2830  18.2830  18.2830  18.3242  18.3242  18.5615  18.5616
    18.5842  18.5842  18.6095  18.6095  18.8654  18.8655  18.8655  18.8655
    18.9139  18.9140  19.2547  19.2547  19.2547  19.2548  20.0753  20.0753
    24.6833  24.6834

          k = 0.3889-0.5000-0.5000 ( 11932 PWs)   bands (ev):

   -68.9749 -68.9749 -68.9749 -68.9748 -68.9631 -68.9631 -68.9631 -68.9630
   -68.9178 -68.9178 -68.9178 -68.9177 -68.9102 -68.9102 -68.9102 -68.9101
   -35.1523 -35.1523 -35.1523 -35.1523 -35.1486 -35.1485 -35.1485 -35.1485
   -35.1183 -35.1182 -35.1182 -35.1182 -35.1060 -35.1060 -35.1060 -35.1059
   -35.1017 -35.1017 -35.1016 -35.1016 -35.0723 -35.0722 -35.0722 -35.0722
   -34.9012 -34.9012 -34.9012 -34.9012 -34.8725 -34.8725 -34.8725 -34.8725
   -34.8682 -34.8682 -34.8682 -34.8682 -34.8526 -34.8526 -34.8526 -34.8526
   -34.8417 -34.8417 -34.8417 -34.8416 -34.8252 -34.8252 -34.8251 -34.8251
    13.3409  13.3409  13.3409  13.3409  14.0993  14.0993  14.0993  14.0993
    15.1302  15.1302  15.1302  15.1303  15.3135  15.3135  15.3135  15.3136
    15.4290  15.4290  15.4290  15.4290  15.4747  15.4748  15.4748  15.4748
    15.8548  15.8548  15.8548  15.8548  15.8698  15.8698  15.8698  15.8698
    15.8903  15.8904  15.8904  15.8904  16.0131  16.0131  16.0132  16.0132
    16.0653  16.0653  16.0653  16.0653  16.2396  16.2396  16.2397  16.2397
    17.9485  17.9485  17.9485  17.9485  17.9972  17.9972  17.9972  17.9972
    18.0394  18.0394  18.0394  18.0394  18.0986  18.0986  18.0986  18.0986
    18.3803  18.3803  18.3803  18.3803  18.4722  18.4722  18.4722  18.4722
    18.6714  18.6714  18.6714  18.6714  18.8614  18.8614  18.8614  18.8614
    18.9089  18.9089  18.9090  18.9090  19.6540  19.6540  19.6540  19.6540
    25.2243  25.2243

          k =-0.5000-0.5000-0.5000 ( 11992 PWs)   bands (ev):

   -68.9696 -68.9696 -68.9696 -68.9695 -68.9695 -68.9695 -68.9695 -68.9694
   -68.9135 -68.9135 -68.9135 -68.9135 -68.9135 -68.9135 -68.9135 -68.9134
   -35.1291 -35.1291 -35.1291 -35.1291 -35.1291 -35.1291 -35.1291 -35.1291
   -35.1290 -35.1290 -35.1290 -35.1290 -35.1290 -35.1290 -35.1290 -35.1290
   -35.0958 -35.0958 -35.0958 -35.0958 -35.0958 -35.0958 -35.0958 -35.0958
   -34.8830 -34.8830 -34.8830 -34.8830 -34.8830 -34.8830 -34.8830 -34.8830
   -34.8470 -34.8470 -34.8470 -34.8470 -34.8470 -34.8470 -34.8470 -34.8470
   -34.8470 -34.8470 -34.8470 -34.8470 -34.8470 -34.8469 -34.8469 -34.8469
    13.7150  13.7150  13.7150  13.7150  13.7150  13.7150  13.7150  13.7150
    15.3697  15.3697  15.3697  15.3697  15.3697  15.3697  15.3697  15.3697
    15.3697  15.3697  15.3697  15.3697  15.3697  15.3697  15.3698  15.3698
    15.9342  15.9342  15.9342  15.9342  15.9342  15.9342  15.9342  15.9342
    15.9342  15.9342  15.9342  15.9342  15.9342  15.9343  15.9343  15.9343
    15.9652  15.9652  15.9652  15.9652  15.9652  15.9653  15.9653  15.9653
    18.0199  18.0199  18.0199  18.0199  18.0199  18.0199  18.0199  18.0199
    18.0199  18.0199  18.0199  18.0199  18.0199  18.0199  18.0200  18.0200
    18.6054  18.6054  18.6054  18.6054  18.6054  18.6054  18.6054  18.6054
    18.6054  18.6054  18.6054  18.6054  18.6054  18.6055  18.6055  18.6055
    19.2697  19.2697  19.2697  19.2697  19.2697  19.2698  19.2698  19.2698
    26.3809  26.3809

 ------ SPIN DOWN ----------


          k = 0.0556 0.0556 0.0556 ( 11954 PWs)   bands (ev):

   -66.5442 -66.4605 -66.4605 -66.4605 -66.4470 -66.4469 -66.4469 -66.4458
   -66.4457 -66.4457 -66.4457 -66.4457 -66.4457 -66.4397 -66.4395 -66.3748
   -32.8567 -32.8567 -32.8566 -32.8540 -32.8539 -32.8539 -32.7103 -32.7103
   -32.7046 -32.6410 -32.6383 -32.6383 -32.6383 -32.6186 -32.6186 -32.6071
   -32.6071 -32.6071 -32.5743 -32.5743 -32.5530 -32.5391 -32.5391 -32.5391
   -32.5288 -32.5288 -32.5288 -32.5174 -32.5174 -32.5174 -32.5144 -32.5144
   -32.5144 -32.5071 -32.5071 -32.5071 -32.4974 -32.4974 -32.4974 -32.3524
   -32.3509 -32.3509 -32.3509 -32.3479 -32.3479 -32.3478 -32.3474 -32.3474
    10.5487  14.4906  14.4906  14.4906  15.1276  15.1276  15.1276  15.1337
    15.1337  15.1337  15.1733  15.1733  15.1733  15.8058  15.8058  16.8762
    16.9525  16.9525  17.0533  17.0533  17.0698  17.1426  17.1426  17.1426
    17.1556  17.1556  17.1556  17.8935  17.8935  17.8935  18.2785  18.2785
    18.2785  18.4701  18.4701  18.5176  18.7367  18.7367  18.7367  18.8839
    18.8839  18.8839  18.9205  18.9205  18.9205  19.0268  19.0268  19.0268
    19.4447  19.4447  19.4447  19.4899  19.4899  19.4899  19.8078  19.8078
    19.8079  20.0544  20.0544  20.0544  20.5316  20.5316  20.5316  20.5570
    20.5570  20.5570  20.7248  20.7248  21.0030  21.0030  21.0030  21.0488
    21.0488  21.0498  21.0498  21.1450  21.1450  21.1450  21.2273  21.3095
    21.3095  21.5706  21.5706  21.5706  21.6754  21.6754  21.6754  21.7214
    21.7214  21.7214

          k = 0.0556 0.0556 0.1667 ( 11961 PWs)   bands (ev):

   -66.5410 -66.4754 -66.4599 -66.4598 -66.4487 -66.4486 -66.4465 -66.4455
   -66.4455 -66.4453 -66.4448 -66.4448 -66.4403 -66.4399 -66.4316 -66.3772
   -32.8496 -32.8496 -32.8486 -32.8462 -32.8418 -32.8418 -32.7135 -32.7046
   -32.6961 -32.6737 -32.6660 -32.6660 -32.6645 -32.6629 -32.6362 -32.6362
   -32.6051 -32.5806 -32.5710 -32.5709 -32.5602 -32.5388 -32.5388 -32.5311
   -32.5226 -32.5207 -32.5207 -32.5195 -32.5193 -32.5122 -32.5122 -32.5075
   -32.5074 -32.5034 -32.5034 -32.4760 -32.4732 -32.4731 -32.4668 -32.3654
   -32.3589 -32.3589 -32.3578 -32.3552 -32.3516 -32.3507 -32.3507 -32.3489
    10.6813  13.7884  14.5601  14.5601  15.1085  15.1086  15.1840  15.1840
    15.2310  15.2310  15.2315  15.2696  15.6324  15.8545  15.8726  16.7812
    16.8618  16.9013  16.9775  17.1186  17.1303  17.1813  17.1923  17.1924
    17.2084  17.2313  17.2313  17.4918  17.7966  17.7966  18.0984  18.0984
    18.4439  18.4644  18.5024  18.5317  18.5317  18.5789  18.5979  18.7042
    18.7042  18.9510  19.0883  19.0883  19.1308  19.1308  19.1489  19.1625
    19.1625  19.1782  19.1858  19.1858  19.1942  19.2504  19.5672  20.0297
    20.0297  20.2711  20.2711  20.2991  20.4521  20.4521  20.5211  20.5211
    20.5580  20.5797  20.6464  20.7562  21.0060  21.0091  21.0120  21.0435
    21.0450  21.0476  21.0701  21.0929  21.0929  21.1605  21.3027  21.3730
    21.3859  21.3860  21.5697  21.5697  21.5879  21.5879  21.7631  21.7631
    21.9000  21.9000

          k = 0.0556 0.0556 0.2778 ( 11976 PWs)   bands (ev):

   -66.5352 -66.4901 -66.4587 -66.4586 -66.4507 -66.4507 -66.4458 -66.4452
   -66.4452 -66.4446 -66.4444 -66.4443 -66.4411 -66.4405 -66.4184 -66.3814
   -32.8336 -32.8336 -32.8329 -32.8310 -32.8209 -32.8209 -32.7138 -32.7108
   -32.7054 -32.7036 -32.7036 -32.6931 -32.6841 -32.6827 -32.6754 -32.6754
   -32.6010 -32.5913 -32.5902 -32.5759 -32.5371 -32.5371 -32.5326 -32.5323
   -32.5285 -32.5243 -32.5243 -32.5106 -32.5106 -32.5078 -32.5078 -32.4900
   -32.4830 -32.4721 -32.4721 -32.4466 -32.4436 -32.4436 -32.4383 -32.3875
   -32.3723 -32.3723 -32.3716 -32.3700 -32.3619 -32.3592 -32.3591 -32.3572
    10.9432  13.0815  14.6829  14.6830  15.0845  15.0845  15.2738  15.2738
    15.2997  15.2997  15.4193  15.4543  15.9410  15.9582  16.0046  16.6051
    16.6273  16.8926  16.9202  17.0748  17.0846  17.1083  17.3027  17.3027
    17.3672  17.3672  17.3906  17.4213  17.7043  17.7043  17.9445  17.9445
    18.2507  18.2507  18.4047  18.4047  18.4240  18.4537  18.4973  18.5017
    18.6336  18.6336  18.6697  18.7049  18.7049  18.7862  18.7926  19.2777
    19.3394  19.4215  19.4282  19.4282  19.4416  19.4416  19.5298  20.3229
    20.3229  20.3295  20.3295  20.4204  20.4204  20.4920  20.5350  20.5614
    20.5614  20.6082  20.6261  20.7681  20.8152  20.8964  20.9402  20.9451
    21.0114  21.0358  21.0392  21.0426  21.2109  21.2109  21.2275  21.2312
    21.4307  21.4307  21.4809  21.4809  21.5649  21.5649  21.8874  21.8874
    21.9464  21.9464

          k = 0.0556 0.0556 0.3889 ( 11969 PWs)   bands (ev):

   -66.5268 -66.5039 -66.4570 -66.4570 -66.4529 -66.4529 -66.4449 -66.4449
   -66.4446 -66.4443 -66.4443 -66.4436 -66.4422 -66.4414 -66.4065 -66.3879
   -32.8097 -32.8094 -32.8093 -32.8086 -32.7919 -32.7919 -32.7471 -32.7448
   -32.7423 -32.7422 -32.7169 -32.7169 -32.7120 -32.6983 -32.6764 -32.6651
   -32.6295 -32.6182 -32.5764 -32.5657 -32.5455 -32.5398 -32.5348 -32.5348
   -32.5279 -32.5279 -32.5094 -32.5094 -32.5081 -32.5081 -32.4922 -32.4521
   -32.4483 -32.4414 -32.4414 -32.4199 -32.4172 -32.4156 -32.4156 -32.4124
   -32.3914 -32.3913 -32.3908 -32.3908 -32.3769 -32.3728 -32.3728 -32.3709
    11.3276  12.4159  14.8274  14.8274  15.0401  15.0401  15.3552  15.3552
    15.3611  15.3611  15.6815  15.7110  16.0394  16.1036  16.1995  16.3226
    16.3287  16.7584  16.9169  16.9278  17.0198  17.0274  17.4691  17.4691
    17.5577  17.5577  17.6626  17.6922  17.7076  17.7076  17.8704  17.8704
    17.9945  17.9946  18.1023  18.1024  18.2085  18.2085  18.2977  18.2977
    18.3722  18.3912  18.4131  18.4437  18.4451  18.4637  18.7927  19.1311
    19.6428  19.6881  19.6881  19.7352  19.7494  19.7494  19.8529  20.1482
    20.1482  20.2539  20.2539  20.2670  20.4344  20.5636  20.6353  20.6353
    20.6791  20.6929  20.7537  20.8501  20.8501  20.8540  20.8613  20.8971
    21.0190  21.0263  21.0326  21.0356  21.1051  21.1096  21.1401  21.1402
    21.3085  21.3085  21.4718  21.4718  21.5511  21.5511  21.9969  21.9969
[...]
   -32.5224 -32.5224 -32.5224 -32.5223 -32.5214 -32.5214 -32.5214 -32.5153
   -32.5153 -32.4870 -32.4870 -32.4870 -32.4534 -32.4393 -32.4393 -32.4393
   -32.4176 -32.4176 -32.4176 -32.4019 -32.4019 -32.4019 -32.3965 -32.3965
    11.6698  13.6363  13.6363  13.6363  14.8682  14.8682  14.8682  15.9268
    15.9268  15.9268  16.2388  16.2388  16.2388  16.2619  16.2619  16.2897
    16.5382  16.9824  16.9824  17.0244  17.0244  17.0244  17.2335  17.2335
    17.2443  17.2443  17.2443  17.4341  17.4341  17.4341  17.8354  17.8354
    17.8354  17.8827  17.8827  17.8827  17.9046  17.9046  17.9046  17.9061
    17.9061  17.9061  18.1234  18.1234  18.3539  18.3539  18.3539  19.2878
    19.4001  19.8313  19.8313  19.8313  19.9154  19.9154  19.9154  20.1893
    20.1893  20.1893  20.2674  20.2674  20.2674  20.5041  20.5041  20.5041
    20.5796  20.5796  20.7965  20.7965  20.8710  20.8710  20.8971  20.8971
    20.8971  20.9306  20.9306  20.9306  20.9403  20.9403  21.0826  21.0826
    21.0826  21.1455  21.1455  21.1455  21.5968  21.5968  21.5968  23.5923
    23.7183  23.7183

          k = 0.2776 0.2776 0.3887 ( 12003 PWs)   bands (ev):

   -66.5448 -66.5255 -66.5103 -66.5103 -66.4999 -66.4999 -66.4917 -66.4856
   -66.4681 -66.4667 -66.4625 -66.4625 -66.4569 -66.4569 -66.4456 -66.4307
   -32.8280 -32.8280 -32.8179 -32.7956 -32.7956 -32.7925 -32.7848 -32.7830
   -32.7677 -32.7677 -32.7653 -32.7568 -32.7316 -32.7035 -32.7035 -32.6953
   -32.6821 -32.6541 -32.6541 -32.6418 -32.6355 -32.6339 -32.6339 -32.6008
   -32.5579 -32.5476 -32.5248 -32.5217 -32.5091 -32.5091 -32.4972 -32.4972
   -32.4913 -32.4913 -32.4795 -32.4584 -32.4557 -32.4557 -32.4445 -32.4377
   -32.4223 -32.4125 -32.4114 -32.4114 -32.4059 -32.4027 -32.4027 -32.3949
    12.0302  13.0352  13.9077  13.9077  14.5601  14.5601  15.1714  15.9365
    16.1080  16.1080  16.1465  16.3096  16.3096  16.3773  16.4071  16.4249
    16.5204  16.8004  17.0330  17.0673  17.0673  17.1129  17.1393  17.1749
    17.2836  17.3455  17.3455  17.3878  17.4897  17.4897  17.6114  17.6581
    17.6581  17.7016  17.7016  17.7309  17.7818  17.7818  17.7935  17.7935
    17.8898  17.9198  18.0075  18.0648  18.0955  18.0955  18.4857  19.0302
    19.5147  19.9300  19.9300  20.0147  20.0560  20.0893  20.0893  20.0990
    20.0990  20.1009  20.3497  20.4304  20.4304  20.4486  20.5687  20.5687
    20.5813  20.6408  20.6666  20.6834  20.7772  20.8193  20.8809  20.8809
    20.8848  20.8966  20.9321  20.9844  20.9864  20.9864  21.0098  21.0335
    21.0541  21.0541  21.1263  21.1263  21.2951  21.2951  22.0636  23.0712
    24.0160  24.0160

          k = 0.2776 0.2776-0.4997 ( 11990 PWs)   bands (ev):

   -66.5360 -66.5360 -66.5054 -66.5054 -66.5054 -66.5054 -66.4888 -66.4888
   -66.4672 -66.4672 -66.4594 -66.4594 -66.4594 -66.4594 -66.4374 -66.4374
   -32.8120 -32.8120 -32.8120 -32.8120 -32.7898 -32.7897 -32.7886 -32.7886
   -32.7768 -32.7768 -32.7357 -32.7357 -32.7357 -32.7357 -32.7090 -32.7089
   -32.6689 -32.6689 -32.6472 -32.6472 -32.6472 -32.6472 -32.5965 -32.5965
   -32.5741 -32.5741 -32.5250 -32.5250 -32.4987 -32.4987 -32.4987 -32.4987
   -32.4752 -32.4752 -32.4752 -32.4752 -32.4482 -32.4482 -32.4391 -32.4391
   -32.4334 -32.4334 -32.4059 -32.4059 -32.4059 -32.4059 -32.3982 -32.3982
    12.4914  12.4915  14.2278  14.2278  14.2278  14.2278  15.5402  15.5402
    16.2547  16.2547  16.2547  16.2547  16.3730  16.3730  16.4544  16.4544
    16.5900  16.5901  17.1007  17.1007  17.1625  17.1625  17.2519  17.2519
    17.2519  17.2519  17.3369  17.3369  17.4863  17.4863  17.4863  17.4863
    17.5594  17.5595  17.7464  17.7464  17.7464  17.7464  17.8622  17.8622
    17.8622  17.8622  17.9259  17.9259  17.9958  17.9958  18.7129  18.7129
    19.7591  19.7591  20.0056  20.0056  20.0056  20.0056  20.2825  20.2825
    20.2825  20.2825  20.2849  20.2849  20.3346  20.3346  20.5144  20.5144
    20.6759  20.6759  20.8024  20.8024  20.8190  20.8190  20.8190  20.8190
    20.8781  20.8781  20.8930  20.8930  21.0517  21.0517  21.0649  21.0649
    21.0649  21.0649  21.0781  21.0781  21.0781  21.0781  22.5618  22.5618
    24.2502  24.2502

          k = 0.2776 0.3887 0.3887 ( 12002 PWs)   bands (ev):

   -66.5384 -66.5207 -66.5207 -66.5076 -66.5066 -66.4971 -66.4971 -66.4896
   -66.4660 -66.4633 -66.4633 -66.4585 -66.4569 -66.4485 -66.4485 -66.4352
   -32.8188 -32.8080 -32.8080 -32.7946 -32.7924 -32.7924 -32.7804 -32.7711
   -32.7711 -32.7706 -32.7608 -32.7364 -32.7287 -32.7240 -32.7037 -32.6838
   -32.6838 -32.6678 -32.6676 -32.6676 -32.6603 -32.6603 -32.6564 -32.5926
   -32.5740 -32.5218 -32.5218 -32.5093 -32.5093 -32.5084 -32.4935 -32.4897
   -32.4780 -32.4751 -32.4669 -32.4634 -32.4634 -32.4479 -32.4479 -32.4421
   -32.4208 -32.4207 -32.4207 -32.4146 -32.4033 -32.4033 -32.4008 -32.3976
    12.3792  13.3416  13.3416  14.1366  14.1886  14.8622  14.8622  15.6071
    16.3096  16.3245  16.3245  16.4600  16.4883  16.5077  16.5077  16.5440
    16.6011  16.8913  16.8913  17.0195  17.1118  17.1322  17.1430  17.2683
    17.2683  17.3033  17.3033  17.3671  17.3712  17.4275  17.5287  17.5287
    17.5392  17.5866  17.5866  17.6281  17.7133  17.7133  17.7175  17.7433
    17.8239  17.8239  17.8736  17.8908  17.9706  18.1744  18.1744  18.6628
    19.7687  20.0577  20.0905  20.0909  20.0909  20.2408  20.2447  20.2447
    20.2780  20.2780  20.3182  20.3182  20.4510  20.4766  20.5176  20.5176
    20.5405  20.5991  20.6651  20.7230  20.7855  20.8114  20.8285  20.8626
    20.8790  20.8790  20.8829  20.8829  20.9245  20.9557  20.9558  20.9558
    21.0056  21.0310  21.0310  21.1210  21.1281  21.7070  21.7070  22.6034
    24.3959  24.8860

          k = 0.2776 0.3887-0.4997 ( 12006 PWs)   bands (ev):

   -66.5302 -66.5302 -66.5146 -66.5146 -66.5021 -66.5021 -66.4936 -66.4936
   -66.4644 -66.4644 -66.4606 -66.4606 -66.4522 -66.4522 -66.4412 -66.4412
   -32.8058 -32.8058 -32.7987 -32.7987 -32.7838 -32.7838 -32.7832 -32.7832
   -32.7756 -32.7756 -32.7474 -32.7474 -32.7095 -32.7095 -32.7022 -32.7022
   -32.6859 -32.6859 -32.6742 -32.6742 -32.6702 -32.6702 -32.6300 -32.6300
   -32.5474 -32.5474 -32.5083 -32.5083 -32.4989 -32.4989 -32.4974 -32.4974
   -32.4741 -32.4741 -32.4616 -32.4616 -32.4433 -32.4433 -32.4431 -32.4431
   -32.4394 -32.4394 -32.4179 -32.4179 -32.4010 -32.4010 -32.3990 -32.3990
    12.8230  12.8231  13.7185  13.7185  14.5202  14.5202  15.2260  15.2260
    16.4551  16.4551  16.4631  16.4631  16.5317  16.5317  16.5513  16.5513
    16.7147  16.7147  17.1106  17.1106  17.1222  17.1222  17.1512  17.1512
    17.1868  17.1868  17.3029  17.3029  17.3959  17.3959  17.4663  17.4663
    17.5371  17.5371  17.5511  17.5511  17.6848  17.6848  17.7618  17.7618
    17.7843  17.7843  17.8921  17.8921  17.9124  17.9124  18.3625  18.3625
    20.0390  20.0390  20.0678  20.0678  20.1997  20.1997  20.3089  20.3089
    20.3810  20.3810  20.3857  20.3857  20.3910  20.3910  20.4567  20.4567
    20.6212  20.6212  20.6287  20.6287  20.7540  20.7540  20.8383  20.8383
    20.8393  20.8393  20.8705  20.8705  20.8795  20.8795  20.9236  20.9236
    21.0378  21.0378  21.0885  21.0885  21.3741  21.3741  22.1496  22.1496
    24.7343  24.7343

          k = 0.2776-0.4997-0.4997 ( 11988 PWs)   bands (ev):

   -66.5230 -66.5230 -66.5230 -66.5229 -66.4982 -66.4982 -66.4982 -66.4982
   -66.4622 -66.4622 -66.4622 -66.4622 -66.4461 -66.4461 -66.4461 -66.4461
   -32.7948 -32.7948 -32.7948 -32.7948 -32.7869 -32.7869 -32.7869 -32.7869
   -32.7612 -32.7612 -32.7612 -32.7612 -32.6961 -32.6961 -32.6961 -32.6961
   -32.6855 -32.6855 -32.6855 -32.6855 -32.6659 -32.6659 -32.6659 -32.6659
   -32.5217 -32.5217 -32.5217 -32.5217 -32.5009 -32.5009 -32.5009 -32.5009
   -32.4539 -32.4539 -32.4539 -32.4539 -32.4505 -32.4505 -32.4505 -32.4505
   -32.4319 -32.4319 -32.4319 -32.4319 -32.3992 -32.3992 -32.3992 -32.3992
    13.2400  13.2400  13.2400  13.2400  14.8676  14.8676  14.8676  14.8676
    16.5502  16.5502  16.5502  16.5502  16.6048  16.6048  16.6048  16.6048
    16.9169  16.9169  16.9169  16.9169  17.0557  17.0557  17.0557  17.0557
    17.2965  17.2965  17.2965  17.2965  17.3714  17.3714  17.3714  17.3714
    17.5395  17.5395  17.5395  17.5395  17.6498  17.6498  17.6498  17.6498
    17.8151  17.8151  17.8151  17.8151  18.0812  18.0812  18.0812  18.0812
    20.1841  20.1841  20.1841  20.1841  20.3341  20.3341  20.3341  20.3341
    20.3567  20.3568  20.3568  20.3568  20.4335  20.4335  20.4335  20.4335
    20.5129  20.5129  20.5129  20.5129  20.7498  20.7498  20.7498  20.7498
    20.8448  20.8448  20.8448  20.8448  20.8764  20.8764  20.8764  20.8765
    21.0739  21.0739  21.0739  21.0739  21.7529  21.7529  21.7529  21.7529
    25.2116  25.2116

          k = 0.3887 0.3887 0.3887 ( 11974 PWs)   bands (ev):

   -66.5325 -66.5162 -66.5162 -66.5162 -66.5041 -66.5041 -66.5041 -66.4949
   -66.4628 -66.4583 -66.4583 -66.4583 -66.4508 -66.4508 -66.4508 -66.4391
   -32.7979 -32.7979 -32.7979 -32.7861 -32.7861 -32.7861 -32.7700 -32.7518
   -32.7518 -32.7464 -32.7464 -32.7464 -32.7393 -32.7393 -32.6995 -32.6995
   -32.6995 -32.6921 -32.6920 -32.6920 -32.6850 -32.6850 -32.6850 -32.6242
   -32.5477 -32.4993 -32.4993 -32.4993 -32.4862 -32.4862 -32.4862 -32.4742
   -32.4742 -32.4632 -32.4632 -32.4632 -32.4619 -32.4619 -32.4619 -32.4448
   -32.4197 -32.4197 -32.4197 -32.4148 -32.4148 -32.4112 -32.4112 -32.4112
    12.7199  13.6502  13.6502  13.6502  14.4459  14.4459  14.4459  15.2278
    16.5338  16.5338  16.5338  16.6416  16.6416  16.6957  16.6957  16.6957
    16.7786  16.8893  16.8893  16.8893  17.1815  17.1815  17.1969  17.1969
    17.3240  17.3240  17.3240  17.3499  17.3499  17.3499  17.4421  17.4421
    17.4421  17.5132  17.5132  17.5132  17.6308  17.6308  17.6308  17.6328
    17.6328  17.6328  17.8144  17.8144  17.8624  17.8624  17.8624  18.2868
    20.0452  20.2506  20.2506  20.2506  20.2834  20.2834  20.2834  20.3655
    20.3655  20.3655  20.5410  20.5410  20.5410  20.5854  20.5854  20.6283
    20.6283  20.6283  20.6553  20.6553  20.7353  20.7353  20.7616  20.7616
    20.8144  20.8144  20.8144  20.8572  20.8572  20.8572  20.9134  20.9134
    20.9134  20.9246  20.9246  20.9246  21.3381  21.3381  21.3381  22.1655
    25.4930  25.4930

          k = 0.3887 0.3887-0.4997 ( 11986 PWs)   bands (ev):

   -66.5250 -66.5249 -66.5106 -66.5106 -66.5106 -66.5106 -66.4998 -66.4998
   -66.4603 -66.4603 -66.4541 -66.4541 -66.4541 -66.4541 -66.4444 -66.4444
   -32.7881 -32.7881 -32.7881 -32.7881 -32.7719 -32.7719 -32.7712 -32.7712
   -32.7581 -32.7581 -32.7279 -32.7279 -32.7192 -32.7192 -32.7192 -32.7192
   -32.7135 -32.7135 -32.7003 -32.7003 -32.7003 -32.7003 -32.6580 -32.6580
   -32.5227 -32.5227 -32.4810 -32.4810 -32.4790 -32.4790 -32.4790 -32.4790
   -32.4701 -32.4701 -32.4701 -32.4701 -32.4517 -32.4517 -32.4446 -32.4446
   -32.4368 -32.4368 -32.4173 -32.4173 -32.4173 -32.4173 -32.4114 -32.4114
    13.1509  13.1509  14.0287  14.0288  14.0288  14.0288  14.8224  14.8224
    16.6866  16.6866  16.6866  16.6866  16.7471  16.7471  16.7598  16.7598
    16.7598  16.7598  17.0712  17.0712  17.0712  17.0712  17.2057  17.2057
    17.2637  17.2637  17.2641  17.2641  17.3148  17.3148  17.4697  17.4697
    17.4697  17.4697  17.5565  17.5565  17.5565  17.5565  17.6072  17.6072
    17.6072  17.6072  17.6955  17.6955  17.7261  17.7261  17.9936  17.9936
    20.2973  20.2973  20.2973  20.2973  20.3395  20.3395  20.4725  20.4725
    20.4811  20.4811  20.4811  20.4811  20.4837  20.4837  20.4870  20.4870
    20.6487  20.6487  20.7106  20.7106  20.7629  20.7629  20.7924  20.7924
    20.7938  20.7938  20.7938  20.7938  20.8568  20.8568  20.8904  20.8904
    20.8904  20.8904  21.0002  21.0002  21.0002  21.0002  21.7462  21.7462
    25.7820  25.7820

          k = 0.3887-0.4997-0.4997 ( 11964 PWs)   bands (ev):

   -66.5183 -66.5183 -66.5183 -66.5182 -66.5055 -66.5055 -66.5055 -66.5055
   -66.4569 -66.4569 -66.4569 -66.4568 -66.4487 -66.4487 -66.4487 -66.4487
   -32.7748 -32.7748 -32.7748 -32.7748 -32.7713 -32.7713 -32.7713 -32.7713
   -32.7386 -32.7386 -32.7386 -32.7386 -32.7238 -32.7238 -32.7238 -32.7238
   -32.7194 -32.7194 -32.7194 -32.7194 -32.6885 -32.6885 -32.6885 -32.6885
   -32.4996 -32.4996 -32.4996 -32.4996 -32.4687 -32.4687 -32.4687 -32.4687
   -32.4638 -32.4638 -32.4638 -32.4638 -32.4470 -32.4470 -32.4470 -32.4470
   -32.4352 -32.4352 -32.4352 -32.4352 -32.4173 -32.4173 -32.4173 -32.4173
    13.5613  13.5613  13.5613  13.5613  14.4082  14.4082  14.4082  14.4082
    16.7695  16.7695  16.7695  16.7695  16.9027  16.9028  16.9028  16.9028
    16.9512  16.9512  16.9512  16.9512  17.0234  17.0234  17.0234  17.0234
    17.3629  17.3629  17.3629  17.3629  17.3827  17.3827  17.3827  17.3827
    17.3855  17.3855  17.3855  17.3855  17.5682  17.5682  17.5682  17.5682
    17.6270  17.6270  17.6270  17.6270  17.7042  17.7042  17.7042  17.7042
    20.4303  20.4303  20.4303  20.4303  20.4588  20.4588  20.4588  20.4588
    20.5357  20.5357  20.5357  20.5357  20.5886  20.5886  20.5886  20.5886
    20.6596  20.6596  20.6596  20.6596  20.7100  20.7100  20.7100  20.7100
    20.7570  20.7570  20.7570  20.7570  20.7765  20.7765  20.7765  20.7765
    20.8356  20.8356  20.8356  20.8356  21.3647  21.3647  21.3647  21.3647
    26.2962  26.2962

          k =-0.4997-0.4997-0.4997 ( 11992 PWs)   bands (ev):

   -66.5125 -66.5125 -66.5125 -66.5125 -66.5125 -66.5125 -66.5125 -66.5125
   -66.4522 -66.4522 -66.4522 -66.4522 -66.4522 -66.4522 -66.4522 -66.4522
   -32.7494 -32.7494 -32.7494 -32.7494 -32.7494 -32.7494 -32.7494 -32.7494
   -32.7494 -32.7494 -32.7494 -32.7494 -32.7494 -32.7494 -32.7494 -32.7494
   -32.7140 -32.7140 -32.7140 -32.7140 -32.7140 -32.7140 -32.7140 -32.7140
   -32.4798 -32.4798 -32.4798 -32.4798 -32.4798 -32.4798 -32.4798 -32.4798
   -32.4410 -32.4410 -32.4410 -32.4410 -32.4410 -32.4410 -32.4410 -32.4410
   -32.4410 -32.4410 -32.4410 -32.4410 -32.4410 -32.4409 -32.4409 -32.4409
    13.9602  13.9602  13.9602  13.9602  13.9602  13.9602  13.9602  13.9602
    16.9881  16.9881  16.9881  16.9881  16.9881  16.9881  16.9881  16.9881
    16.9881  16.9881  16.9881  16.9881  16.9881  16.9881  16.9882  16.9882
    17.3732  17.3732  17.3732  17.3732  17.3732  17.3732  17.3732  17.3732
    17.4755  17.4755  17.4755  17.4755  17.4755  17.4755  17.4755  17.4755
    17.4755  17.4755  17.4755  17.4755  17.4755  17.4755  17.4755  17.4755
    20.6221  20.6221  20.6221  20.6221  20.6221  20.6221  20.6221  20.6221
    20.6221  20.6221  20.6221  20.6221  20.6221  20.6221  20.6221  20.6221
    20.6555  20.6555  20.6555  20.6555  20.6555  20.6555  20.6555  20.6555
    20.6555  20.6555  20.6555  20.6555  20.6555  20.6555  20.6555  20.6555
    21.0047  21.0047  21.0047  21.0047  21.0047  21.0047  21.0047  21.0047
    27.3771  27.3771

     the Fermi energy is    19.0024 ev

!    total energy              =   -5268.18911551 Ry

     total all-electron energy =    -40728.933644 Ry
     estimated scf accuracy    <          2.7E-11 Ry
     smearing contrib. (-TS)   =       0.12365696 Ry
     internal energy E=F+TS    =   -5268.31277247 Ry

     The total energy is F=E-TS. E is the sum of the following terms:
     one-electron contribution =   -1705.69133037 Ry
     hartree contribution      =    1021.65382661 Ry
     xc contribution           =    -444.27294075 Ry
     ewald contribution        =   -2815.33099750 Ry
     one-center paw contrib.   =   -1324.67133046 Ry

     total magnetization       =    32.88 Bohr mag/cell
     absolute magnetization    =    34.64 Bohr mag/cell

     convergence has been achieved in  25 iterations

     negative rho (up, down):  0.000E+00 2.459E-03

     Forces acting on atoms (cartesian axes, Ry/au):

     atom    1 type  1   force =     0.00000000    0.00000000    0.00000000
     atom    2 type  2   force =    -0.00000130   -0.00000130   -0.00000130
     atom    3 type  1   force =     0.00000000    0.00000000    0.00000000
     atom    4 type  2   force =    -0.00000130   -0.00000130    0.00000130
     atom    5 type  1   force =     0.00000000    0.00000000    0.00000000
     atom    6 type  2   force =    -0.00000130    0.00000130   -0.00000130
     atom    7 type  1   force =     0.00000000    0.00000000    0.00000000
     atom    8 type  2   force =    -0.00000130    0.00000130    0.00000130
     atom    9 type  1   force =     0.00000000    0.00000000    0.00000000
     atom   10 type  2   force =     0.00000130   -0.00000130   -0.00000130
     atom   11 type  1   force =     0.00000000    0.00000000    0.00000000
     atom   12 type  2   force =     0.00000130   -0.00000130    0.00000130
     atom   13 type  1   force =     0.00000000    0.00000000    0.00000000
     atom   14 type  2   force =     0.00000130    0.00000130   -0.00000130
     atom   15 type  1   force =     0.00000000    0.00000000    0.00000000
     atom   16 type  2   force =     0.00000130    0.00000130    0.00000130

     Total force =     0.000006     Total SCF correction =     0.000023
     SCF correction compared to forces is large: reduce conv_thr to get better values


     Computing stress (Cartesian axis) and pressure


     negative rho (up, down):  0.000E+00 2.459E-03
          total   stress  (Ry/bohr**3)                   (kbar)     P=        0.29
   0.00000200   0.00000000   0.00000000            0.29        0.00        0.00
   0.00000000   0.00000200   0.00000000            0.00        0.29        0.00
   0.00000000   0.00000000   0.00000200            0.00        0.00        0.29


     Writing output data file /scratch/ferelaxbcc.save/
 
     init_run     :      8.52s CPU      8.80s WALL (       2 calls)
     electrons    :   1387.97s CPU   1414.55s WALL (       4 calls)
     update_pot   :      0.72s CPU      0.73s WALL (       2 calls)
     forces       :      8.51s CPU      8.60s WALL (       4 calls)
     stress       :     13.79s CPU     13.89s WALL (       4 calls)

     Called by init_run:
     wfcinit      :      7.44s CPU      7.65s WALL (       2 calls)
     potinit      :      0.45s CPU      0.48s WALL (       2 calls)
     hinit0       :      0.34s CPU      0.35s WALL (       2 calls)

     Called by electrons:
     c_bands      :   1231.57s CPU   1253.60s WALL (     104 calls)
     sum_band     :    140.12s CPU    144.00s WALL (     104 calls)
     v_of_rho     :      1.07s CPU      1.11s WALL (     107 calls)
     newd         :      2.12s CPU      2.17s WALL (     107 calls)
     PAW_pot      :     13.07s CPU     13.55s WALL (     109 calls)
     mix_rho      :      0.48s CPU      0.52s WALL (     104 calls)

     Called by c_bands:
     init_us_2    :      5.23s CPU      5.48s WALL (   15400 calls)
     cegterg      :   1209.34s CPU   1230.71s WALL (    7280 calls)

     Called by *egterg:
     cdiaghg      :    285.13s CPU    286.50s WALL (   30993 calls)
     h_psi        :    590.42s CPU    608.22s WALL (   31343 calls)
     s_psi        :     28.59s CPU     28.94s WALL (   31343 calls)
     g_psi        :      1.08s CPU      1.09s WALL (   23923 calls)

     Called by h_psi:
     h_psi:calbec :     89.25s CPU     90.27s WALL (   31343 calls)
     vloc_psi     :    465.62s CPU    482.05s WALL (   31343 calls)
     add_vuspsi   :     33.35s CPU     33.74s WALL (   31343 calls)

     General routines
     calbec       :    129.50s CPU    130.92s WALL (   40163 calls)
     fft          :      1.12s CPU      1.16s WALL (    2831 calls)
     ffts         :      0.11s CPU      0.12s WALL (     422 calls)
     fftw         :    539.05s CPU    557.81s WALL ( 6809280 calls)
     interpolate  :      0.14s CPU      0.14s WALL (     214 calls)
 
     Parallel routines
     fft_scatt_xy :     37.76s CPU     39.16s WALL ( 6812533 calls)
     fft_scatt_yz :    438.41s CPU    453.99s WALL ( 6812533 calls)
 
     PWSCF        :  23m48.97s CPU  24m16.92s WALL

 
   This run was terminated on:  14:10:57  14Mar2022            

=------------------------------------------------------------------------------=
   JOB DONE.
=------------------------------------------------------------------------------=
