
     Program PWSCF v.6.7MaX starts on 14Mar2022 at 10:20: 6 

     This program is part of the open-source Quantum ESPRESSO suite
     for quantum simulation of materials; please cite
         "P. Giannozzi et al., J. Phys.:Condens. Matter 21 395502 (2009);
         "P. Giannozzi et al., J. Phys.:Condens. Matter 29 465901 (2017);
          URL http://www.quantum-espresso.org", 
     in publications or presentations arising from this work. More details at
     http://www.quantum-espresso.org/quote

     Parallel version (MPI & OpenMP), running on      72 processor cores
     Number of MPI processes:                72
     Threads/MPI process:                     1

     MPI processes distributed on     1 nodes
     R & G space division:  proc/nbgrp/npool/nimage =      72
     Reading input from relaxed.in

     Current dimensions of program PWSCF are:
     Max number of different atomic species (ntypx) = 10
     Max number of k-points (npk) =  40000
     Max angular momentum in pseudopotentials (lmaxx) =  3
     file Pd.pbe-spn-kjpaw_psl.1.0.0.UPF: wavefunction(s)  4S 5S 4D renormalized

     Subspace diagonalization in iterative solution of the eigenvalue problem:
     one sub-group per band group will be used
     ELPA distributed-memory algorithm (size of sub-group:  8*  8 procs)

     Found symmetry operation: I + (  0.2500  0.2500  0.0000)
     This is a supercell, fractional translations are disabled
     Message from routine setup:
     using ibrav=0 with symmetry is DISCOURAGED, use correct ibrav instead
 
     Parallelization info
     --------------------
     sticks:   dense  smooth     PW     G-vecs:    dense   smooth      PW
     Min         104      68     18                 6830     3658     516
     Max         105      69     19                 6837     3669     525
     Sum        7521    4957   1353               492057   263859   37529
 


     bravais-lattice index     =            0
     lattice parameter (alat)  =      14.8394  a.u.
     unit-cell volume          =    3267.7647 (a.u.)^3
     number of atoms/cell      =           32
     number of atomic types    =            1
     number of electrons       =       576.00
     number of Kohn-Sham states=          346
     kinetic-energy cutoff     =      71.0000  Ry
     charge density cutoff     =     430.0000  Ry
     scf convergence threshold =      1.0E-08
     mixing beta               =       0.3000
     number of iterations used =           10  plain     mixing
     energy convergence thresh.=      1.0E-04
     force convergence thresh. =      1.0E-03
     press convergence thresh. =      5.0E-01
     Exchange-correlation= SLA  PW   PBX  PBC
                           (   1   4   3   4   0   0   0)
     nstep                     =           60


     celldm(1)=  14.839420  celldm(2)=   0.000000  celldm(3)=   0.000000
     celldm(4)=   0.000000  celldm(5)=   0.000000  celldm(6)=   0.000000

     crystal axes: (cart. coord. in units of alat)
               a(1) = (   1.000000   0.000000   0.000000 )  
               a(2) = (   0.000000   1.000000   0.000000 )  
               a(3) = (   0.000000   0.000000   1.000000 )  

     reciprocal axes: (cart. coord. in units 2 pi/alat)
               b(1) = (  1.000000  0.000000  0.000000 )  
               b(2) = (  0.000000  1.000000  0.000000 )  
               b(3) = (  0.000000  0.000000  1.000000 )  


     PseudoPot. # 1 for Pd read from file:
     /rds/homes/b/bxp912/pp/Pd.pbe-spn-kjpaw_psl.1.0.0.UPF
     MD5 check sum: 790f2ebce206edfd9790dcb9844eca51
     Pseudo is Projector augmented-wave + core cor, Zval = 18.0
     Generated using &quot;atomic&quot; code by A. Dal Corso  v.6.3
     Shape of augmentation charge: PSQ
     Using radial grid of 1235 points,  6 beta functions with: 
                l(1) =   0
                l(2) =   0
                l(3) =   1
                l(4) =   1
                l(5) =   2
                l(6) =   2
     Q(r) pseudized with 0 coefficients 


     atomic species   valence    mass     pseudopotential
        Pd            18.00   106.42000     Pd( 1.00)

     48 Sym. Ops., with inversion, found



   Cartesian axes

     site n.     atom                  positions (alat units)
         1           Pd  tau(   1) = (   0.0000000   0.0000000   0.0000000  )
         2           Pd  tau(   2) = (   0.2500000   0.2500000   0.0000000  )
         3           Pd  tau(   3) = (   0.2500000   0.0000000   0.2500000  )
         4           Pd  tau(   4) = (   0.0000000   0.2500000   0.2500000  )
         5           Pd  tau(   5) = (   0.0000000   0.0000000   0.5000000  )
         6           Pd  tau(   6) = (   0.2500000   0.2500000   0.5000000  )
         7           Pd  tau(   7) = (   0.2500000   0.0000000   0.7500000  )
         8           Pd  tau(   8) = (   0.0000000   0.2500000   0.7500000  )
         9           Pd  tau(   9) = (   0.0000000   0.5000000   0.0000000  )
        10           Pd  tau(  10) = (   0.2500000   0.7500000   0.0000000  )
        11           Pd  tau(  11) = (   0.2500000   0.5000000   0.2500000  )
        12           Pd  tau(  12) = (   0.0000000   0.7500000   0.2500000  )
        13           Pd  tau(  13) = (   0.0000000   0.5000000   0.5000000  )
        14           Pd  tau(  14) = (   0.2500000   0.7500000   0.5000000  )
        15           Pd  tau(  15) = (   0.2500000   0.5000000   0.7500000  )
        16           Pd  tau(  16) = (   0.0000000   0.7500000   0.7500000  )
        17           Pd  tau(  17) = (   0.5000000   0.0000000   0.0000000  )
        18           Pd  tau(  18) = (   0.7500000   0.2500000   0.0000000  )
        19           Pd  tau(  19) = (   0.7500000   0.0000000   0.2500000  )
        20           Pd  tau(  20) = (   0.5000000   0.2500000   0.2500000  )
        21           Pd  tau(  21) = (   0.5000000   0.0000000   0.5000000  )
        22           Pd  tau(  22) = (   0.7500000   0.2500000   0.5000000  )
        23           Pd  tau(  23) = (   0.7500000   0.0000000   0.7500000  )
        24           Pd  tau(  24) = (   0.5000000   0.2500000   0.7500000  )
        25           Pd  tau(  25) = (   0.5000000   0.5000000   0.0000000  )
        26           Pd  tau(  26) = (   0.7500000   0.7500000   0.0000000  )
        27           Pd  tau(  27) = (   0.7500000   0.5000000   0.2500000  )
        28           Pd  tau(  28) = (   0.5000000   0.7500000   0.2500000  )
        29           Pd  tau(  29) = (   0.5000000   0.5000000   0.5000000  )
        30           Pd  tau(  30) = (   0.7500000   0.7500000   0.5000000  )
        31           Pd  tau(  31) = (   0.7500000   0.5000000   0.7500000  )
        32           Pd  tau(  32) = (   0.5000000   0.7500000   0.7500000  )

     number of k points=    35  Marzari-Vanderbilt smearing, width (Ry)=  0.0400
                       cart. coord. in units 2pi/alat
        k(    1) = (   0.0555556   0.0555556   0.0555556), wk =   0.0219479
        k(    2) = (   0.0555556   0.0555556   0.1666667), wk =   0.0658436
        k(    3) = (   0.0555556   0.0555556   0.2777778), wk =   0.0658436
        k(    4) = (   0.0555556   0.0555556   0.3888889), wk =   0.0658436
        k(    5) = (   0.0555556   0.0555556  -0.5000000), wk =   0.0329218
        k(    6) = (   0.0555556   0.1666667   0.1666667), wk =   0.0658436
        k(    7) = (   0.0555556   0.1666667   0.2777778), wk =   0.1316872
        k(    8) = (   0.0555556   0.1666667   0.3888889), wk =   0.1316872
        k(    9) = (   0.0555556   0.1666667  -0.5000000), wk =   0.0658436
        k(   10) = (   0.0555556   0.2777778   0.2777778), wk =   0.0658436
        k(   11) = (   0.0555556   0.2777778   0.3888889), wk =   0.1316872
        k(   12) = (   0.0555556   0.2777778  -0.5000000), wk =   0.0658436
        k(   13) = (   0.0555556   0.3888889   0.3888889), wk =   0.0658436
        k(   14) = (   0.0555556   0.3888889  -0.5000000), wk =   0.0658436
        k(   15) = (   0.0555556  -0.5000000  -0.5000000), wk =   0.0164609
        k(   16) = (   0.1666667   0.1666667   0.1666667), wk =   0.0219479
        k(   17) = (   0.1666667   0.1666667   0.2777778), wk =   0.0658436
        k(   18) = (   0.1666667   0.1666667   0.3888889), wk =   0.0658436
        k(   19) = (   0.1666667   0.1666667  -0.5000000), wk =   0.0329218
        k(   20) = (   0.1666667   0.2777778   0.2777778), wk =   0.0658436
        k(   21) = (   0.1666667   0.2777778   0.3888889), wk =   0.1316872
        k(   22) = (   0.1666667   0.2777778  -0.5000000), wk =   0.0658436
        k(   23) = (   0.1666667   0.3888889   0.3888889), wk =   0.0658436
        k(   24) = (   0.1666667   0.3888889  -0.5000000), wk =   0.0658436
        k(   25) = (   0.1666667  -0.5000000  -0.5000000), wk =   0.0164609
        k(   26) = (   0.2777778   0.2777778   0.2777778), wk =   0.0219479
        k(   27) = (   0.2777778   0.2777778   0.3888889), wk =   0.0658436
        k(   28) = (   0.2777778   0.2777778  -0.5000000), wk =   0.0329218
        k(   29) = (   0.2777778   0.3888889   0.3888889), wk =   0.0658436
        k(   30) = (   0.2777778   0.3888889  -0.5000000), wk =   0.0658436
        k(   31) = (   0.2777778  -0.5000000  -0.5000000), wk =   0.0164609
        k(   32) = (   0.3888889   0.3888889   0.3888889), wk =   0.0219479
        k(   33) = (   0.3888889   0.3888889  -0.5000000), wk =   0.0329218
        k(   34) = (   0.3888889  -0.5000000  -0.5000000), wk =   0.0164609
        k(   35) = (  -0.5000000  -0.5000000  -0.5000000), wk =   0.0027435

     Dense  grid:   492057 G-vectors     FFT dimensions: ( 100, 100, 100)

     Smooth grid:   263859 G-vectors     FFT dimensions: (  80,  80,  80)

     Estimated max dynamical RAM per process >     128.38 MB

     Estimated total dynamical RAM >       9.03 GB

     Check: negative core charge=   -0.000002

     Initial potential from superposition of free atoms

     starting charge  575.98776, renormalised to  576.00000
     Starting wfcs are  320 randomized atomic wfcs +   26 random wfcs
     Checking if some PAW data can be deallocated... 

     total cpu time spent up to now is       13.8 secs

     Self-consistent Calculation

     iteration #  1     ecut=    71.00 Ry     beta= 0.30
     Davidson diagonalization with overlap
     ethr =  1.00E-02,  avg # of iterations =  3.0

     Threshold (ethr) on eigenvalues was too large:
     Diagonalizing with lowered threshold

     Davidson diagonalization with overlap
     ethr =  8.87E-05,  avg # of iterations =  3.7

     total cpu time spent up to now is       88.6 secs

     total energy              =  -16384.90505684 Ry
     estimated scf accuracy    <       0.47442218 Ry

     iteration #  2     ecut=    71.00 Ry     beta= 0.30
     Davidson diagonalization with overlap
     ethr =  8.24E-05,  avg # of iterations =  2.2

     total cpu time spent up to now is      124.1 secs

     total energy              =  -16384.95879136 Ry
     estimated scf accuracy    <       0.04118642 Ry

     iteration #  3     ecut=    71.00 Ry     beta= 0.30
     Davidson diagonalization with overlap
     ethr =  7.15E-06,  avg # of iterations =  4.7

     total cpu time spent up to now is      159.3 secs

     total energy              =  -16384.95564344 Ry
     estimated scf accuracy    <       0.04640966 Ry

     iteration #  4     ecut=    71.00 Ry     beta= 0.30
     Davidson diagonalization with overlap
     ethr =  7.15E-06,  avg # of iterations =  1.3

     total cpu time spent up to now is      188.6 secs

     total energy              =  -16384.95592918 Ry
     estimated scf accuracy    <       0.02597190 Ry

     iteration #  5     ecut=    71.00 Ry     beta= 0.30
     Davidson diagonalization with overlap
     c_bands:  1 eigenvalues not converged
     ethr =  4.51E-06,  avg # of iterations =  3.5

     total cpu time spent up to now is      221.5 secs

     total energy              =  -16384.95302655 Ry
     estimated scf accuracy    <       0.11797780 Ry

     iteration #  6     ecut=    71.00 Ry     beta= 0.30
     Davidson diagonalization with overlap
     ethr =  4.51E-06,  avg # of iterations =  1.2

     total cpu time spent up to now is      250.4 secs

     total energy              =  -16384.95779723 Ry
     estimated scf accuracy    <       0.00494978 Ry

     iteration #  7     ecut=    71.00 Ry     beta= 0.30
     Davidson diagonalization with overlap
     ethr =  8.59E-07,  avg # of iterations =  1.2

     total cpu time spent up to now is      278.9 secs

     total energy              =  -16384.95814962 Ry
     estimated scf accuracy    <       0.00021256 Ry

     iteration #  8     ecut=    71.00 Ry     beta= 0.30
     Davidson diagonalization with overlap
     ethr =  3.69E-08,  avg # of iterations =  3.7

     total cpu time spent up to now is      312.5 secs

     total energy              =  -16384.95815121 Ry
     estimated scf accuracy    <       0.00007285 Ry

     iteration #  9     ecut=    71.00 Ry     beta= 0.30
     Davidson diagonalization with overlap
     ethr =  1.26E-08,  avg # of iterations =  2.0

     total cpu time spent up to now is      344.2 secs

     total energy              =  -16384.95815487 Ry
     estimated scf accuracy    <       0.00001505 Ry

     iteration # 10     ecut=    71.00 Ry     beta= 0.30
     Davidson diagonalization with overlap
     ethr =  2.61E-09,  avg # of iterations =  2.4

     total cpu time spent up to now is      382.2 secs

     total energy              =  -16384.95815667 Ry
     estimated scf accuracy    <       0.00000368 Ry

     iteration # 11     ecut=    71.00 Ry     beta= 0.30
     Davidson diagonalization with overlap
     ethr =  6.40E-10,  avg # of iterations =  2.0

     total cpu time spent up to now is      414.8 secs

     total energy              =  -16384.95815729 Ry
     estimated scf accuracy    <       0.00000075 Ry

     iteration # 12     ecut=    71.00 Ry     beta= 0.30
     Davidson diagonalization with overlap
     ethr =  1.30E-10,  avg # of iterations =  3.4

     total cpu time spent up to now is      452.9 secs

     total energy              =  -16384.95815735 Ry
     estimated scf accuracy    <       0.00000054 Ry

     iteration # 13     ecut=    71.00 Ry     beta= 0.30
     Davidson diagonalization with overlap
     ethr =  9.38E-11,  avg # of iterations =  1.0

     total cpu time spent up to now is      481.1 secs

     total energy              =  -16384.95815738 Ry
     estimated scf accuracy    <       0.00000002 Ry

     iteration # 14     ecut=    71.00 Ry     beta= 0.30
     Davidson diagonalization with overlap
     ethr =  3.22E-12,  avg # of iterations =  4.0

     total cpu time spent up to now is      528.4 secs

     End of self-consistent calculation

          k = 0.0556 0.0556 0.0556 ( 32996 PWs)   bands (ev):

   -64.8702 -64.8410 -64.8410 -64.8410 -64.8355 -64.8355 -64.8355 -64.8251
   -64.8251 -64.8251 -64.8225 -64.8221 -64.8221 -64.8221 -64.8221 -64.8221
   -64.8221 -64.8220 -64.8220 -64.8220 -64.8195 -64.8195 -64.8195 -64.8063
   -64.8063 -64.8063 -64.8063 -64.8063 -64.8063 -64.8063 -64.8063 -64.8063
   -30.7546 -30.7546 -30.7546 -30.7528 -30.7342 -30.7341 -30.7341 -30.6563
   -30.6563 -30.6563 -30.6520 -30.6520 -30.6520 -30.6519 -30.6519 -30.6519
   -30.6441 -30.6441 -30.6441 -30.6388 -30.6388 -30.6388 -30.6388 -30.6388
   -30.6388 -30.6202 -30.6202 -30.6202 -30.6202 -30.6202 -30.6202 -30.5791
   -30.5791 -30.5791 -30.5546 -30.5546 -30.5546 -30.5485 -30.5485 -30.5485
   -30.5391 -30.5391 -30.5391 -30.5391 -30.5391 -30.5391 -30.5241 -30.5241
   -30.5241 -30.5232 -30.5232 -30.5232 -30.5232 -30.5232 -30.5232 -30.5227
   -30.5227 -30.5227 -30.5211 -30.5211 -30.5211 -30.4576 -30.4576 -30.4576
   -30.4574 -30.4574 -30.4574 -30.4452 -30.4452 -30.4452 -30.4450 -30.4450
   -30.4450 -30.4416 -30.4416 -30.4416 -30.4371 -30.4371 -30.4371 -30.4365
   -30.4365 -30.4365 -30.4365 -30.4365 -30.4365 -30.4360 -30.4360 -30.4360
   -30.4350 -30.4350 -30.4293 -30.4293 -30.4293 -30.3837 -30.3812 -30.3812
    12.2943  14.0509  14.0509  14.0509  14.1197  14.1334  14.1334  14.1334
    14.3238  14.3238  14.3238  14.3262  14.3262  14.3262  14.5188  14.5188
    14.5188  15.0643  15.0643  15.0643  15.0643  15.0643  15.0643  15.2182
    15.2182  15.2182  15.3686  15.3686  15.3686  15.4049  15.4049  15.4049
    15.4511  15.4511  15.4511  15.4511  15.4511  15.4511  15.4530  15.4530
    15.4530  15.7950  15.7950  15.7950  15.7950  15.7950  15.7950  15.9023
    15.9023  15.9023  15.9243  15.9243  15.9243  15.9243  15.9243  15.9243
    15.9811  15.9811  15.9811  16.1509  16.1509  16.1509  16.1509  16.1509
    16.1509  16.2564  16.2564  16.2564  16.2607  16.2607  16.2607  16.2607
    16.2607  16.2607  16.3684  16.3684  16.3684  16.4330  16.4330  16.4330
    16.4540  16.4540  16.4646  16.4646  16.4646  16.4826  16.5022  16.5022
    17.2993  17.2993  17.2993  17.3600  17.3600  17.3600  17.4327  17.4327
    17.4327  17.4327  17.4327  17.4327  17.4387  17.4387  17.4387  17.4870
    17.4870  17.4870  17.5904  17.5904  17.5904  17.7090  17.7090  17.7090
    17.8344  17.8344  17.8344  17.8920  17.8920  17.8920  17.9652  17.9652
    17.9652  17.9652  17.9652  17.9652  17.9843  17.9843  17.9843  18.0323
    18.0323  18.0399  18.0399  18.0399  18.0400  18.0400  18.0400  18.1492
    18.1492  18.1492  18.5367  18.5367  18.5367  18.6385  18.6385  18.6385
    19.0215  19.0215  19.0215  19.1459  19.1459  19.1459  19.1729  19.1729
    19.1931  19.1931  19.1931  19.4234  19.4234  19.4234  19.4777  19.4777
    19.4777  19.4777  19.4777  19.4777  19.4807  19.4807  19.4807  20.1446
    20.4509  20.4509  20.4509  20.9769  20.9769  20.9769  21.4872  21.4872
    21.4872  21.4872  21.4872  21.4872  22.0165  22.0165  22.0165  22.5968
    22.5968  22.5968  26.3537  26.3537  26.3537  26.5105  27.5024  27.5024
    27.5024  27.5024  27.5024  27.5024  28.1949  28.1949  28.1949  28.1949
    28.1949  28.1949  29.6085  29.6085  29.6085  29.6085  29.6085  29.6085
    29.7737  29.7737  29.7737  30.7301  30.7665  30.7667  30.7668  30.7668
    30.7668  30.7668

          k = 0.0556 0.0556 0.1667 ( 33001 PWs)   bands (ev):

   -64.8692 -64.8465 -64.8405 -64.8405 -64.8350 -64.8350 -64.8300 -64.8281
   -64.8281 -64.8250 -64.8246 -64.8246 -64.8230 -64.8221 -64.8221 -64.8220
   -64.8220 -64.8215 -64.8196 -64.8191 -64.8191 -64.8170 -64.8170 -64.8073
   -64.8068 -64.8068 -64.8067 -64.8067 -64.8063 -64.8063 -64.8063 -64.8063
   -30.7519 -30.7502 -30.7502 -30.7471 -30.7309 -30.7309 -30.7289 -30.6679
   -30.6626 -30.6626 -30.6582 -30.6582 -30.6572 -30.6572 -30.6568 -30.6568
   -30.6546 -30.6452 -30.6452 -30.6424 -30.6424 -30.6376 -30.6376 -30.6339
   -30.6339 -30.6230 -30.6230 -30.6167 -30.6167 -30.6090 -30.6021 -30.6021
   -30.5839 -30.5839 -30.5698 -30.5698 -30.5546 -30.5546 -30.5540 -30.5540
   -30.5426 -30.5285 -30.5285 -30.5264 -30.5264 -30.5238 -30.5238 -30.5230
   -30.5230 -30.5206 -30.5206 -30.5205 -30.5189 -30.5182 -30.5178 -30.5178
   -30.5173 -30.5173 -30.5143 -30.5092 -30.5092 -30.4699 -30.4695 -30.4603
   -30.4603 -30.4546 -30.4546 -30.4492 -30.4492 -30.4478 -30.4478 -30.4458
   -30.4458 -30.4435 -30.4417 -30.4417 -30.4414 -30.4410 -30.4410 -30.4372
   -30.4370 -30.4365 -30.4365 -30.4363 -30.4363 -30.4339 -30.4337 -30.4337
   -30.4331 -30.4328 -30.4296 -30.4248 -30.4248 -30.3902 -30.3834 -30.3827
    12.3678  14.0249  14.0853  14.0973  14.0973  14.1476  14.1750  14.1750
    14.1884  14.3540  14.3684  14.3684  14.3751  14.3751  14.5708  14.5708
    14.5878  14.9783  14.9783  15.0399  15.0991  15.0991  15.1059  15.1059
    15.1364  15.2174  15.2174  15.2444  15.2444  15.2567  15.2636  15.2636
    15.4102  15.4102  15.4268  15.4268  15.4403  15.4403  15.4766  15.4766
    15.5233  15.5233  15.5944  15.7815  15.7815  15.7979  15.7979  15.8437
    15.8437  15.8532  15.8532  15.9124  15.9124  16.0003  16.0003  16.0155
    16.0616  16.0616  16.1091  16.1135  16.1135  16.1199  16.1199  16.1556
    16.1556  16.2006  16.2006  16.2297  16.2297  16.3923  16.4107  16.4107
    16.4112  16.4112  16.4315  16.4315  16.4461  16.4543  16.4771  16.4776
    16.4874  16.5007  16.5007  16.5086  16.5318  16.5343  16.5395  16.5395
    17.1083  17.1083  17.2194  17.2257  17.2446  17.2446  17.2993  17.2993
    17.3171  17.3630  17.3846  17.3846  17.5031  17.5150  17.5150  17.5282
    17.5282  17.5667  17.5667  17.5762  17.5762  17.7889  17.7889  17.8076
    17.8154  17.8154  17.8816  17.8816  17.9614  17.9614  17.9706  17.9706
    17.9719  17.9719  17.9916  18.0485  18.0503  18.0616  18.0616  18.0889
    18.1798  18.1798  18.1881  18.1881  18.2243  18.2243  18.2793  18.2970
    18.2970  18.3288  18.4383  18.5823  18.5823  18.7072  18.7112  18.7112
    18.7411  18.7586  18.7586  18.9729  19.0842  19.0842  19.1058  19.1226
    19.1656  19.1659  19.1659  19.1916  19.1916  19.3535  19.4060  19.4060
    19.4069  19.4069  19.4191  19.4772  19.4772  19.4776  19.4776  20.1366
    20.5126  20.5126  20.6219  20.6219  20.8525  20.9480  20.9968  20.9968
    21.4644  21.4644  21.9975  22.0553  22.0553  22.2347  22.5965  22.5965
    22.8884  22.8884  26.3523  26.5122  26.5122  26.7854  26.7854  26.7922
    26.7922  26.8069  27.3854  27.3854  27.6351  27.6351  28.3194  28.3194
    28.8341  28.8341  29.6566  29.6566  29.7597  29.7597  29.7701  29.9160
    29.9160  29.9930  29.9930  30.2040  30.2040  30.2276  30.3136  30.3136
    30.7519  30.7520

          k = 0.0556 0.0556 0.2778 ( 32975 PWs)   bands (ev):

   -64.8673 -64.8518 -64.8395 -64.8395 -64.8341 -64.8341 -64.8310 -64.8310
   -64.8270 -64.8270 -64.8249 -64.8247 -64.8235 -64.8221 -64.8221 -64.8220
   -64.8220 -64.8211 -64.8198 -64.8162 -64.8162 -64.8146 -64.8146 -64.8092
   -64.8078 -64.8078 -64.8076 -64.8076 -64.8063 -64.8063 -64.8063 -64.8063
   -30.7449 -30.7418 -30.7418 -30.7373 -30.7246 -30.7246 -30.7191 -30.6850
   -30.6792 -30.6792 -30.6740 -30.6740 -30.6711 -30.6597 -30.6597 -30.6576
   -30.6576 -30.6477 -30.6477 -30.6383 -30.6383 -30.6372 -30.6364 -30.6364
   -30.6237 -30.6237 -30.6218 -30.6218 -30.6108 -30.6108 -30.5923 -30.5923
   -30.5847 -30.5847 -30.5843 -30.5843 -30.5681 -30.5681 -30.5655 -30.5655
   -30.5330 -30.5330 -30.5243 -30.5225 -30.5225 -30.5207 -30.5207 -30.5162
   -30.5148 -30.5118 -30.5118 -30.5092 -30.5092 -30.5084 -30.5084 -30.5072
   -30.5072 -30.4990 -30.4951 -30.4951 -30.4891 -30.4816 -30.4810 -30.4657
   -30.4657 -30.4586 -30.4586 -30.4570 -30.4570 -30.4538 -30.4530 -30.4530
   -30.4497 -30.4497 -30.4491 -30.4491 -30.4433 -30.4411 -30.4382 -30.4364
   -30.4364 -30.4364 -30.4364 -30.4363 -30.4363 -30.4334 -30.4334 -30.4330
   -30.4299 -30.4228 -30.4228 -30.4216 -30.4210 -30.4014 -30.3876 -30.3867
    12.5129  13.6749  14.1516  14.1876  14.1876  14.2171  14.2576  14.2576
    14.2837  14.4090  14.4527  14.4527  14.4744  14.4744  14.5557  14.6714
    14.6714  14.8308  14.8308  14.8743  14.8889  14.9666  14.9666  15.0181
    15.1264  15.1264  15.1644  15.1644  15.1873  15.1873  15.1952  15.1952
    15.2963  15.2963  15.3104  15.3104  15.4223  15.4223  15.4697  15.4697
    15.5873  15.5873  15.7282  15.7282  15.7620  15.7620  15.7803  15.7803
    15.7810  15.8003  15.8003  15.8276  15.8276  15.9399  15.9399  16.0117
    16.0117  16.0629  16.0677  16.0677  16.1384  16.1384  16.1627  16.1627
    16.1687  16.1687  16.2347  16.2498  16.2498  16.3352  16.3696  16.3721
    16.3721  16.4316  16.4316  16.4357  16.5333  16.5682  16.5682  16.5848
    16.5964  16.5985  16.7472  16.7472  16.7647  16.8144  16.9029  16.9029
    16.9592  16.9592  16.9775  16.9775  17.0475  17.1273  17.1331  17.1331
    17.1504  17.1566  17.4533  17.4717  17.4717  17.5690  17.5690  17.6366
    17.6366  17.6523  17.6523  17.7105  17.7105  17.7423  17.7423  17.8056
    17.8056  17.9133  17.9484  17.9484  17.9499  17.9499  17.9729  17.9729
    17.9790  17.9790  18.0805  18.1764  18.2291  18.2291  18.2445  18.2445
    18.2561  18.3391  18.3460  18.3460  18.3866  18.3866  18.3866  18.3866
    18.4342  18.4342  18.4614  18.4771  18.4771  18.5491  18.7271  18.7271
    18.7888  18.7888  18.7948  18.8423  18.9400  18.9400  18.9899  18.9899
    18.9954  19.0722  19.0798  19.0798  19.0921  19.2187  19.2727  19.2727
    19.2739  19.2739  19.3054  19.4768  19.4768  19.4774  19.4774  20.0844
    20.0844  20.3107  20.5354  20.5354  20.8466  20.8466  20.8886  21.2241
    21.4158  21.4158  21.6249  21.9532  22.6910  22.6910  23.2378  23.2378
    23.3770  23.3770  25.9094  25.9094  26.0605  26.0605  26.4692  26.4692
    26.5224  26.8267  26.8267  27.2310  27.8837  27.8837  28.5582  28.5582
    28.8768  29.3312  29.3312  29.4226  29.4226  29.6738  29.6738  29.7319
    29.7319  29.8183  29.8183  29.9817  30.0804  30.0804  30.2445  30.2445
    30.2536  30.2536

          k = 0.0556 0.0556 0.3889 ( 32995 PWs)   bands (ev):

   -64.8645 -64.8566 -64.8379 -64.8379 -64.8336 -64.8336 -64.8328 -64.8328
   -64.8292 -64.8292 -64.8246 -64.8239 -64.8221 -64.8221 -64.8220 -64.8220
   -64.8207 -64.8200 -64.8199 -64.8136 -64.8136 -64.8124 -64.8124 -64.8120
   -64.8093 -64.8093 -64.8088 -64.8088 -64.8063 -64.8063 -64.8063 -64.8063
   -30.7340 -30.7299 -30.7299 -30.7239 -30.7155 -30.7155 -30.7046 -30.7030
   -30.6974 -30.6974 -30.6898 -30.6898 -30.6897 -30.6630 -30.6597 -30.6597
   -30.6547 -30.6547 -30.6531 -30.6531 -30.6435 -30.6435 -30.6260 -30.6260
   -30.6184 -30.6184 -30.6080 -30.6080 -30.6030 -30.6030 -30.6028 -30.6028
   -30.5976 -30.5976 -30.5812 -30.5812 -30.5789 -30.5789 -30.5687 -30.5687
   -30.5424 -30.5424 -30.5221 -30.5221 -30.5212 -30.5212 -30.5100 -30.5087
   -30.5042 -30.4964 -30.4964 -30.4957 -30.4957 -30.4950 -30.4950 -30.4937
   -30.4937 -30.4925 -30.4915 -30.4823 -30.4820 -30.4820 -30.4736 -30.4736
   -30.4698 -30.4698 -30.4696 -30.4696 -30.4679 -30.4620 -30.4611 -30.4611
   -30.4607 -30.4607 -30.4533 -30.4441 -30.4441 -30.4404 -30.4390 -30.4364
   -30.4364 -30.4364 -30.4364 -30.4353 -30.4353 -30.4320 -30.4308 -30.4308
   -30.4304 -30.4233 -30.4233 -30.4174 -30.4110 -30.4102 -30.3938 -30.3927
    12.7257  13.3223  14.2442  14.3168  14.3168  14.3277  14.3801  14.3801
    14.4175  14.4658  14.4904  14.5785  14.5785  14.6141  14.6141  14.6544
    14.6544  14.6665  14.7254  14.7380  14.7380  14.7900  14.8133  14.8133
    14.9511  14.9511  14.9601  14.9601  15.1588  15.1588  15.2494  15.2494
    15.3045  15.3045  15.3730  15.3730  15.3918  15.3918  15.5313  15.5313
    15.5866  15.5866  15.5954  15.5954  15.6942  15.6942  15.7337  15.7337
    15.7511  15.7511  15.7926  15.7926  15.8393  15.8393  15.9584  15.9814
    15.9814  16.0135  16.0135  16.1238  16.1691  16.1691  16.1694  16.1694
    16.2001  16.2001  16.2590  16.2668  16.3024  16.3206  16.3206  16.3522
    16.3522  16.4015  16.4816  16.4816  16.6215  16.6663  16.6663  16.6913
    16.6927  16.6940  16.7222  16.7222  16.7307  16.7307  16.8834  16.9284
    16.9284  16.9694  16.9746  16.9807  17.1609  17.1644  17.1644  17.1788
    17.4049  17.4049  17.5377  17.5377  17.5442  17.5627  17.5627  17.7329
    17.7329  17.7693  17.7693  17.7780  17.7780  17.7942  17.7942  17.8039
    17.8311  17.8311  17.9174  17.9174  17.9519  17.9585  17.9585  17.9610
    17.9610  17.9752  17.9752  17.9908  17.9908  18.0752  18.1276  18.1906
    18.1906  18.2620  18.3389  18.3389  18.4328  18.4328  18.4677  18.5068
    18.5909  18.5909  18.5947  18.6508  18.6578  18.6578  18.6793  18.6793
    18.8324  18.8324  18.8471  18.9416  18.9485  18.9485  18.9770  18.9798
    18.9869  18.9869  19.0275  19.0934  19.0934  19.0944  19.0944  19.1660
    19.2849  19.2849  19.4125  19.4768  19.4768  19.4772  19.4772  19.6857
    19.6857  20.0964  20.0964  20.5025  20.7960  20.8938  21.0528  21.0528
    21.3356  21.3356  21.5213  21.8713  23.3995  23.3995  23.9474  23.9474
    23.9775  23.9775  25.0227  25.0227  25.3412  25.3412  25.5719  25.5719
    26.8735  27.2904  27.2904  27.7724  28.0767  28.2352  28.2352  28.6077
    28.6077  28.8937  28.8937  29.1539  29.1539  29.1613  29.5468  29.5468
    29.6907  29.6907  29.7652  29.7652  30.2132  30.2132  30.2228  30.2228
    30.4464  30.4464

          k = 0.0556 0.0556-0.5000 ( 33030 PWs)   bands (ev):

   -64.8609 -64.8609 -64.8360 -64.8360 -64.8360 -64.8360 -64.8312 -64.8312
   -64.8312 -64.8312 -64.8243 -64.8243 -64.8220 -64.8220 -64.8220 -64.8220
   -64.8203 -64.8203 -64.8156 -64.8156 -64.8113 -64.8113 -64.8113 -64.8113
   -64.8105 -64.8105 -64.8105 -64.8105 -64.8063 -64.8063 -64.8063 -64.8063
   -30.7198 -30.7198 -30.7147 -30.7147 -30.7147 -30.7147 -30.7077 -30.7077
   -30.7038 -30.7038 -30.7038 -30.7038 -30.6857 -30.6857 -30.6574 -30.6574
   -30.6574 -30.6574 -30.6497 -30.6497 -30.6497 -30.6497 -30.6146 -30.6146
   -30.6146 -30.6146 -30.6092 -30.6092 -30.6092 -30.6092 -30.5935 -30.5935
   -30.5935 -30.5935 -30.5929 -30.5929 -30.5929 -30.5929 -30.5545 -30.5545
   -30.5545 -30.5545 -30.5217 -30.5217 -30.5217 -30.5217 -30.5020 -30.5020
   -30.5008 -30.5008 -30.4850 -30.4850 -30.4837 -30.4837 -30.4837 -30.4837
   -30.4831 -30.4831 -30.4831 -30.4831 -30.4821 -30.4821 -30.4821 -30.4821
   -30.4763 -30.4763 -30.4763 -30.4763 -30.4704 -30.4704 -30.4704 -30.4704
   -30.4666 -30.4666 -30.4398 -30.4398 -30.4391 -30.4391 -30.4391 -30.4391
   -30.4378 -30.4378 -30.4364 -30.4364 -30.4364 -30.4364 -30.4312 -30.4312
   -30.4261 -30.4261 -30.4261 -30.4261 -30.4016 -30.4016 -30.4007 -30.4007
    12.9994  12.9994  14.3540  14.3540  14.4766  14.4766  14.4766  14.4766
    14.4782  14.4782  14.5411  14.5411  14.5411  14.5411  14.5876  14.5876
    14.5966  14.5966  14.7451  14.7451  14.7451  14.7451  14.7820  14.7820
    14.7820  14.7820  14.9830  14.9831  14.9831  14.9831  15.3333  15.3333
    15.3333  15.3333  15.4488  15.4488  15.4488  15.4488  15.4735  15.4735
    15.4735  15.4735  15.6080  15.6080  15.6080  15.6080  15.7626  15.7626
    15.7626  15.7626  15.7705  15.7705  15.7705  15.7705  15.9819  15.9819
    15.9819  15.9819  16.1199  16.1199  16.1717  16.1717  16.1718  16.1718
    16.1939  16.1939  16.2615  16.2615  16.2615  16.2615  16.3560  16.3560
    16.5183  16.5183  16.5183  16.5183  16.5791  16.5791  16.5791  16.5791
    16.7393  16.7393  16.7916  16.7916  16.7916  16.7916  16.8186  16.8186
    16.8198  16.8198  16.8249  16.8249  17.5563  17.5563  17.5563  17.5563
    17.5579  17.5579  17.5579  17.5579  17.5616  17.5616  17.6052  17.6052
    17.6745  17.6745  17.7759  17.7759  17.7759  17.7759  17.8592  17.8592
    17.8592  17.8592  17.8691  17.8691  17.8691  17.8691  17.8751  17.8751
    17.8751  17.8751  17.9141  17.9141  17.9141  17.9141  18.0892  18.0892
    18.0892  18.0892  18.1886  18.1886  18.6417  18.6417  18.6417  18.6417
    18.6683  18.6683  18.7822  18.7822  18.7822  18.7822  18.7888  18.7888
    18.8167  18.8167  18.8268  18.8268  18.8824  18.8824  18.8824  18.8824
    18.8905  18.8905  18.8905  18.8905  19.0437  19.0437  19.3165  19.3165
    19.3165  19.3165  19.4769  19.4769  19.4769  19.4769  19.6778  19.6778
    19.6778  19.6778  20.1337  20.1337  20.6674  20.6674  21.2165  21.2165
    21.2165  21.2165  21.7336  21.7336  24.1796  24.1796  24.1796  24.1796
    24.6411  24.6411  24.6411  24.6411  24.7270  24.7270  24.7270  24.7270
    27.3989  27.3989  27.8901  27.8901  27.8901  27.8901  28.4200  28.4200
    28.6664  28.6664  28.6664  28.6665  29.3040  29.3041  29.3041  29.3041
    29.6340  29.6341  29.6341  29.6341  30.3948  30.3948  30.3948  30.3948
    30.6764  30.6764

          k = 0.0556 0.1667 0.1667 ( 32991 PWs)   bands (ev):

   -64.8682 -64.8459 -64.8459 -64.8400 -64.8346 -64.8316 -64.8296 -64.8296
   -64.8280 -64.8279 -64.8245 -64.8245 -64.8239 -64.8225 -64.8211 -64.8211
   -64.8211 -64.8211 -64.8192 -64.8192 -64.8172 -64.8172 -64.8150 -64.8073
   -64.8073 -64.8072 -64.8072 -64.8069 -64.8069 -64.8066 -64.8066 -64.8063
   -30.7492 -30.7492 -30.7445 -30.7398 -30.7278 -30.7261 -30.7261 -30.6705
   -30.6705 -30.6680 -30.6680 -30.6584 -30.6584 -30.6571 -30.6551 -30.6551
   -30.6543 -30.6543 -30.6539 -30.6539 -30.6460 -30.6460 -30.6440 -30.6440
   -30.6205 -30.6139 -30.6139 -30.6122 -30.6122 -30.6074 -30.6074 -30.5992
   -30.5992 -30.5890 -30.5853 -30.5612 -30.5564 -30.5564 -30.5426 -30.5426
   -30.5382 -30.5382 -30.5324 -30.5256 -30.5256 -30.5241 -30.5241 -30.5185
   -30.5185 -30.5182 -30.5182 -30.5179 -30.5166 -30.5166 -30.5145 -30.5145
   -30.5128 -30.5128 -30.5005 -30.5005 -30.4949 -30.4726 -30.4726 -30.4672
   -30.4672 -30.4579 -30.4563 -30.4546 -30.4487 -30.4487 -30.4486 -30.4486
   -30.4456 -30.4456 -30.4447 -30.4447 -30.4444 -30.4439 -30.4403 -30.4392
   -30.4392 -30.4381 -30.4355 -30.4355 -30.4349 -30.4339 -30.4339 -30.4339
   -30.4292 -30.4292 -30.4252 -30.4252 -30.4183 -30.3982 -30.3854 -30.3825
    12.4403  14.0774  14.0774  14.1319  14.1319  14.1390  14.1604  14.2016
    14.2416  14.2416  14.3958  14.3958  14.4137  14.4157  14.6090  14.6402
    14.6402  15.0005  15.0005  15.0209  15.0209  15.0491  15.0491  15.0698
    15.0698  15.0934  15.1400  15.1400  15.1624  15.1624  15.2822  15.2890
    15.2890  15.2976  15.2976  15.3486  15.4587  15.4883  15.4883  15.4947
    15.4947  15.5248  15.5248  15.6119  15.6119  15.7567  15.7567  15.8401
    15.8401  15.8506  15.9454  15.9454  15.9607  15.9607  16.0212  16.0212
    16.0325  16.0932  16.0932  16.1026  16.1026  16.1564  16.1564  16.2542
    16.3023  16.3023  16.3478  16.3478  16.3550  16.3550  16.4022  16.4264
    16.4612  16.4612  16.4629  16.4663  16.4663  16.4843  16.4843  16.5018
    16.5334  16.5334  16.5336  16.5340  16.5466  16.5576  16.5576  16.5634
    17.0083  17.0667  17.0667  17.1176  17.2239  17.2239  17.3317  17.3531
    17.3531  17.3536  17.3536  17.4114  17.4114  17.4346  17.4346  17.4903
    17.4962  17.4962  17.5771  17.6499  17.6597  17.6597  17.6791  17.6791
    17.7027  17.9569  17.9569  17.9743  17.9743  17.9802  18.0385  18.0489
    18.0489  18.0658  18.0660  18.0660  18.0749  18.0749  18.1563  18.1563
    18.1847  18.1847  18.3643  18.3643  18.4049  18.4165  18.4165  18.4186
    18.4596  18.4596  18.4665  18.4665  18.5242  18.5242  18.5559  18.5979
    18.7210  18.8278  18.8805  18.8805  19.0142  19.0152  19.0152  19.0334
    19.1304  19.1614  19.1614  19.1785  19.1785  19.1897  19.3479  19.3479
    19.4054  19.4054  19.4078  19.4078  19.4178  19.4178  19.4405  19.8565
    20.0807  20.4810  20.4810  20.5215  20.9729  20.9729  21.1486  21.1486
    21.5453  21.5453  22.0423  22.0423  22.5251  22.5251  22.5842  22.5842
    23.1507  23.1808  26.1664  26.1664  26.3500  26.3500  26.8130  26.8801
    26.8801  26.9214  26.9214  27.2132  27.5145  27.5145  27.9525  27.9525
    28.9616  28.9616  29.2504  29.2504  29.6424  29.7411  29.7892  29.7892
    29.8763  29.8763  30.1047  30.1047  30.2175  30.2175  30.5981  30.5981
    30.8844  30.8882

          k = 0.0556 0.1667 0.2778 ( 32969 PWs)   bands (ev):

   -64.8663 -64.8511 -64.8447 -64.8390 -64.8349 -64.8337 -64.8307 -64.8289
   -64.8276 -64.8268 -64.8249 -64.8244 -64.8243 -64.8231 -64.8230 -64.8206
   -64.8202 -64.8193 -64.8178 -64.8175 -64.8164 -64.8149 -64.8130 -64.8092
   -64.8082 -64.8081 -64.8081 -64.8073 -64.8072 -64.8070 -64.8066 -64.8064
   -30.7437 -30.7424 -30.7350 -30.7287 -30.7215 -30.7205 -30.7166 -30.6879
   -30.6844 -30.6742 -30.6712 -30.6709 -30.6707 -30.6706 -30.6611 -30.6602
   -30.6599 -30.6545 -30.6538 -30.6517 -30.6498 -30.6486 -30.6455 -30.6391
   -30.6313 -30.6182 -30.6153 -30.6089 -30.6051 -30.6039 -30.6000 -30.5981
   -30.5936 -30.5914 -30.5820 -30.5724 -30.5696 -30.5562 -30.5520 -30.5405
   -30.5383 -30.5366 -30.5307 -30.5250 -30.5231 -30.5197 -30.5184 -30.5184
   -30.5162 -30.5160 -30.5142 -30.5096 -30.5063 -30.5046 -30.5039 -30.5013
   -30.4999 -30.4977 -30.4874 -30.4867 -30.4844 -30.4811 -30.4792 -30.4782
   -30.4630 -30.4623 -30.4621 -30.4604 -30.4580 -30.4577 -30.4573 -30.4565
   -30.4515 -30.4489 -30.4479 -30.4457 -30.4457 -30.4452 -30.4416 -30.4410
   -30.4406 -30.4387 -30.4383 -30.4375 -30.4343 -30.4338 -30.4320 -30.4259
   -30.4239 -30.4235 -30.4234 -30.4173 -30.4145 -30.4107 -30.3896 -30.3848
    12.5836  13.7307  14.1794  14.1987  14.2137  14.2205  14.2227  14.2683
    14.3337  14.3461  14.4500  14.4791  14.4924  14.5036  14.6073  14.6807
    14.7420  14.8177  14.8411  14.8716  14.9029  14.9075  14.9171  14.9500
    15.0400  15.0526  15.0755  15.0864  15.1044  15.1298  15.2032  15.2120
    15.2201  15.2387  15.2685  15.3194  15.3591  15.3809  15.4110  15.5109
    15.5228  15.5356  15.5770  15.6450  15.6836  15.6998  15.7076  15.7939
    15.8025  15.8132  15.8293  15.8445  15.8927  15.9572  15.9656  16.0098
    16.0137  16.0249  16.1113  16.1625  16.2062  16.2090  16.2606  16.2709
    16.2872  16.2896  16.3015  16.3279  16.3614  16.3797  16.3855  16.4179
    16.4443  16.4615  16.5196  16.5504  16.5746  16.5924  16.5969  16.6014
    16.6226  16.6396  16.6455  16.6572  16.6728  16.7753  16.8560  16.8866
    16.9102  16.9181  16.9420  17.0325  17.0526  17.1513  17.1617  17.1762
    17.2469  17.2641  17.2755  17.3494  17.3541  17.4295  17.4367  17.5408
    17.5554  17.5774  17.5834  17.6358  17.6804  17.7641  17.8158  17.8205
    17.8375  17.9143  17.9252  17.9405  17.9717  18.0201  18.0542  18.0647
    18.0888  18.1331  18.1364  18.1793  18.1857  18.1974  18.1976  18.2079
    18.2176  18.2473  18.3206  18.3607  18.3817  18.4146  18.4451  18.5091
    18.5184  18.5475  18.5525  18.5552  18.5601  18.5808  18.5858  18.6731
    18.6801  18.7033  18.7960  18.8798  18.9082  18.9315  19.0087  19.0244
    19.0960  19.1354  19.1365  19.1409  19.2223  19.2391  19.2399  19.2445
    19.2729  19.2761  19.3115  19.4050  19.4088  19.4151  19.4196  19.6905
    19.8904  20.0521  20.4172  20.5121  20.5501  20.9244  21.0568  21.4384
    21.6363  21.9193  22.0110  22.1675  22.5485  22.6913  23.0032  23.2347
    23.6039  23.8196  25.3331  25.5188  25.9777  26.2067  26.3522  26.4854
    26.5225  26.9992  27.1946  27.2096  27.2415  27.7184  27.7258  28.3626
    28.4818  28.7541  28.8936  29.0762  29.1940  29.2915  29.5189  29.6979
    29.8754  29.9737  30.0012  30.1961  30.2535  30.4752  30.5713  30.5875
    30.8141  30.9123

          k = 0.0556 0.1667 0.3889 ( 33011 PWs)   bands (ev):

   -64.8636 -64.8559 -64.8429 -64.8380 -64.8375 -64.8333 -64.8325 -64.8290
   -64.8278 -64.8271 -64.8257 -64.8249 -64.8241 -64.8234 -64.8202 -64.8197
   -64.8196 -64.8193 -64.8180 -64.8148 -64.8138 -64.8127 -64.8119 -64.8113
   -64.8098 -64.8097 -64.8093 -64.8084 -64.8072 -64.8070 -64.8065 -64.8064
   -30.7344 -30.7319 -30.7221 -30.7143 -30.7125 -30.7122 -30.7055 -30.7030
   -30.7018 -30.6889 -30.6886 -30.6870 -30.6788 -30.6703 -30.6684 -30.6636
   -30.6634 -30.6633 -30.6618 -30.6581 -30.6489 -30.6447 -30.6418 -30.6342
   -30.6259 -30.6222 -30.6170 -30.6128 -30.6096 -30.6017 -30.5931 -30.5885
   -30.5866 -30.5858 -30.5818 -30.5763 -30.5693 -30.5661 -30.5647 -30.5542
   -30.5507 -30.5401 -30.5186 -30.5185 -30.5154 -30.5154 -30.5153 -30.5133
   -30.5092 -30.5080 -30.5059 -30.4980 -30.4954 -30.4945 -30.4938 -30.4928
   -30.4902 -30.4890 -30.4863 -30.4838 -30.4761 -30.4754 -30.4719 -30.4718
   -30.4714 -30.4711 -30.4709 -30.4691 -30.4688 -30.4687 -30.4685 -30.4578
   -30.4558 -30.4554 -30.4486 -30.4479 -30.4468 -30.4467 -30.4456 -30.4445
   -30.4436 -30.4425 -30.4365 -30.4360 -30.4350 -30.4323 -30.4301 -30.4273
   -30.4270 -30.4242 -30.4184 -30.4132 -30.4132 -30.4065 -30.3958 -30.3898
    12.7937  13.3824  14.2921  14.3074  14.3246  14.3387  14.3527  14.3745
    14.4633  14.4861  14.5160  14.5301  14.5967  14.6036  14.6118  14.6358
    14.6609  14.6931  14.7009  14.7012  14.7613  14.7765  14.8264  14.8374
    14.8580  14.8864  14.9717  14.9912  15.0090  15.0893  15.2013  15.2201
    15.2255  15.2445  15.2806  15.3356  15.3436  15.4678  15.4764  15.4993
    15.5283  15.5430  15.6060  15.6191  15.6381  15.6451  15.6467  15.6547
    15.6902  15.7333  15.7906  15.8217  15.8330  15.8898  15.9665  15.9912
    16.0232  16.0713  16.1779  16.1858  16.2165  16.2407  16.2573  16.2583
    16.2595  16.2642  16.3110  16.3463  16.3613  16.3676  16.3769  16.4005
    16.4471  16.4832  16.4952  16.6272  16.6308  16.6876  16.6940  16.7023
    16.7073  16.7094  16.7503  16.7621  16.7820  16.8466  16.8532  16.8608
    16.9390  16.9528  16.9722  17.0423  17.0732  17.0974  17.1370  17.1571
    17.3184  17.3268  17.3491  17.3681  17.3738  17.4003  17.4962  17.5889
    17.5909  17.6094  17.6714  17.7199  17.7701  17.7840  17.7947  17.7952
    17.8123  17.8218  17.8690  17.9007  17.9409  17.9642  17.9704  17.9759
    18.0306  18.0377  18.0849  18.1154  18.1410  18.1924  18.2198  18.2315
    18.2627  18.2643  18.2657  18.4034  18.4218  18.4248  18.4528  18.4587
    18.5690  18.6084  18.6506  18.6840  18.7190  18.7422  18.7454  18.7500
    18.7557  18.7605  18.7850  18.8469  18.8505  18.9492  18.9539  18.9781
    19.0027  19.0473  19.0491  19.0949  19.0953  19.0955  19.1000  19.1869
    19.2611  19.3358  19.4054  19.4099  19.4107  19.4129  19.6537  19.6723
    19.7868  20.0406  20.0745  20.3208  20.5831  20.6460  20.8510  21.2025
    21.6754  21.9501  22.0310  22.4666  22.8667  23.4155  23.5809  23.9552
    24.1751  24.4697  24.5214  24.8617  25.0728  25.5001  25.5993  26.1243
    26.5535  26.8780  27.4793  27.5614  27.5879  27.7864  28.0272  28.0904
    28.2855  28.3145  28.5257  28.8251  28.9725  29.1795  29.5166  29.6037
    29.7504  29.9072  29.9245  30.0686  30.1580  30.3475  30.3607  30.4225
    30.4904  30.7528

          k = 0.0556 0.1667-0.5000 ( 33016 PWs)   bands (ev):

   -64.8601 -64.8601 -64.8407 -64.8407 -64.8356 -64.8356 -64.8309 -64.8309
   -64.8265 -64.8265 -64.8265 -64.8265 -64.8238 -64.8238 -64.8199 -64.8199
   -64.8186 -64.8186 -64.8154 -64.8154 -64.8121 -64.8121 -64.8116 -64.8116
   -64.8109 -64.8109 -64.8097 -64.8097 -64.8071 -64.8071 -64.8064 -64.8064
   -30.7214 -30.7214 -30.7181 -30.7181 -30.7063 -30.7063 -30.7014 -30.7014
   -30.7008 -30.7008 -30.6973 -30.6973 -30.6852 -30.6852 -30.6673 -30.6673
   -30.6645 -30.6645 -30.6640 -30.6640 -30.6442 -30.6442 -30.6340 -30.6340
   -30.6219 -30.6219 -30.6219 -30.6219 -30.6019 -30.6019 -30.5926 -30.5926
   -30.5816 -30.5816 -30.5761 -30.5761 -30.5713 -30.5713 -30.5626 -30.5626
   -30.5520 -30.5520 -30.5186 -30.5186 -30.5151 -30.5151 -30.5051 -30.5051
   -30.5000 -30.5000 -30.4968 -30.4968 -30.4947 -30.4947 -30.4874 -30.4874
   -30.4848 -30.4848 -30.4827 -30.4827 -30.4814 -30.4814 -30.4807 -30.4807
   -30.4782 -30.4781 -30.4685 -30.4685 -30.4647 -30.4647 -30.4580 -30.4580
   -30.4573 -30.4573 -30.4528 -30.4528 -30.4477 -30.4477 -30.4453 -30.4453
   -30.4436 -30.4436 -30.4401 -30.4401 -30.4357 -30.4357 -30.4284 -30.4284
   -30.4274 -30.4274 -30.4147 -30.4147 -30.4037 -30.4037 -30.3971 -30.3971
    13.0637  13.0637  14.4029  14.4029  14.4406  14.4406  14.4882  14.4882
    14.5031  14.5031  14.5137  14.5137  14.5192  14.5192  14.6285  14.6285
    14.6345  14.6345  14.6585  14.6585  14.7161  14.7161  14.7683  14.7683
    14.8062  14.8062  14.8843  14.8843  15.0608  15.0609  15.1430  15.1430
    15.3378  15.3378  15.3424  15.3424  15.3767  15.3767  15.4803  15.4803
    15.5559  15.5559  15.5833  15.5833  15.6333  15.6333  15.6577  15.6577
    15.7080  15.7080  15.7413  15.7413  15.7449  15.7449  16.1002  16.1002
    16.1226  16.1226  16.1233  16.1233  16.1423  16.1423  16.2041  16.2041
    16.3045  16.3045  16.3172  16.3172  16.4188  16.4188  16.4566  16.4566
    16.5165  16.5165  16.5607  16.5607  16.5734  16.5734  16.6891  16.6891
    16.7336  16.7336  16.8008  16.8008  16.8174  16.8174  16.8206  16.8206
    16.8823  16.8823  16.9032  16.9032  17.3564  17.3564  17.3664  17.3664
    17.4156  17.4156  17.4274  17.4274  17.4535  17.4535  17.5023  17.5023
    17.5479  17.5479  17.6941  17.6941  17.7010  17.7010  17.7711  17.7711
    17.7840  17.7840  17.8197  17.8197  17.8281  17.8281  17.8953  17.8953
    18.0075  18.0075  18.0467  18.0467  18.1177  18.1177  18.1833  18.1833
    18.3124  18.3124  18.3625  18.3625  18.4352  18.4352  18.6036  18.6036
    18.6439  18.6439  18.6612  18.6612  18.7960  18.7960  18.8203  18.8203
    18.8819  18.8819  18.9086  18.9086  18.9124  18.9124  18.9187  18.9187
    18.9273  18.9273  18.9300  18.9300  19.0180  19.0180  19.0691  19.0691
    19.2844  19.2844  19.4069  19.4069  19.4112  19.4112  19.6567  19.6567
    20.1213  20.1213  20.1932  20.1932  20.4691  20.4691  20.7551  20.7551
    21.8437  21.8437  22.3050  22.3050  23.6385  23.6385  24.2096  24.2096
    24.2124  24.2124  24.7458  24.7458  24.8166  24.8166  25.2903  25.2903
    26.9711  26.9711  27.4085  27.4085  27.8549  27.8549  28.0130  28.0130
    28.3992  28.3992  28.4365  28.4365  28.9946  28.9946  29.3768  29.3768
    29.9086  29.9086  30.0765  30.0765  30.0841  30.0841  30.1924  30.1924
    30.8603  30.8603

          k = 0.0556 0.2778 0.2778 ( 33002 PWs)   bands (ev):

   -64.8645 -64.8497 -64.8497 -64.8387 -64.8380 -64.8329 -64.8302 -64.8302
   -64.8265 -64.8265 -64.8262 -64.8239 -64.8239 -64.8238 -64.8194 -64.8193
   -64.8193 -64.8193 -64.8167 -64.8167 -64.8153 -64.8153 -64.8115 -64.8091
   -64.8091 -64.8090 -64.8090 -64.8083 -64.8083 -64.8071 -64.8071 -64.8064
   -30.7386 -30.7386 -30.7246 -30.7166 -30.7154 -30.7120 -30.7120 -30.6879
   -30.6879 -30.6863 -30.6863 -30.6741 -30.6741 -30.6660 -30.6660 -30.6636
   -30.6636 -30.6603 -30.6603 -30.6584 -30.6584 -30.6489 -30.6470 -30.6470
   -30.6426 -30.6426 -30.6139 -30.6082 -30.6015 -30.6015 -30.5942 -30.5942
   -30.5869 -30.5846 -30.5767 -30.5767 -30.5505 -30.5490 -30.5490 -30.5384
   -30.5384 -30.5365 -30.5365 -30.5262 -30.5262 -30.5138 -30.5138 -30.5120
   -30.5119 -30.5119 -30.5107 -30.5107 -30.5059 -30.5059 -30.4977 -30.4977
   -30.4902 -30.4902 -30.4886 -30.4886 -30.4758 -30.4758 -30.4753 -30.4753
   -30.4703 -30.4703 -30.4679 -30.4679 -30.4593 -30.4593 -30.4572 -30.4568
   -30.4568 -30.4554 -30.4554 -30.4541 -30.4455 -30.4455 -30.4441 -30.4430
   -30.4418 -30.4408 -30.4356 -30.4346 -30.4346 -30.4340 -30.4288 -30.4288
   -30.4247 -30.4246 -30.4246 -30.4119 -30.4119 -30.4086 -30.3939 -30.3849
    12.7231  13.8399  13.8399  14.2479  14.2870  14.2905  14.2905  14.3160
    14.4438  14.4438  14.5264  14.5316  14.5316  14.6021  14.6622  14.7004
    14.7076  14.7076  14.7510  14.7510  14.8640  14.8640  14.8675  14.8675
    14.9511  14.9511  14.9742  14.9742  15.1404  15.1416  15.1416  15.1479
    15.1479  15.2454  15.2454  15.2779  15.2779  15.3222  15.3222  15.4014
    15.4014  15.4800  15.5981  15.5981  15.6043  15.6043  15.6278  15.8167
    15.8167  15.8453  15.8453  15.8570  15.8570  15.8627  15.8713  16.1166
    16.1166  16.1896  16.1896  16.2769  16.2769  16.2800  16.2800  16.3227
    16.3261  16.3261  16.3526  16.3526  16.3711  16.4654  16.4917  16.4983
    16.4983  16.5895  16.5895  16.6037  16.6340  16.6587  16.6712  16.6949
    16.6949  16.6964  16.7416  16.7416  16.7583  16.7583  16.7690  16.8046
    16.9054  16.9054  16.9288  16.9288  17.0955  17.0955  17.1501  17.1501
    17.2314  17.2314  17.2850  17.3249  17.3768  17.3768  17.4078  17.4078
    17.4261  17.4261  17.4941  17.4990  17.6414  17.6414  17.7725  17.8597
    17.8597  17.8751  17.8751  17.8853  17.9100  17.9940  17.9940  18.0676
    18.1089  18.1641  18.1641  18.2197  18.2197  18.2665  18.2665  18.3067
    18.3067  18.4174  18.4174  18.4186  18.4186  18.4402  18.4404  18.4404
    18.4430  18.4941  18.4941  18.6491  18.6923  18.7186  18.7186  18.7250
    18.7250  18.7284  18.7284  18.8307  18.8335  18.8711  18.9933  18.9933
    19.0682  19.1460  19.1460  19.1621  19.1771  19.1771  19.2753  19.2753
    19.2789  19.2789  19.3023  19.3023  19.3422  19.3577  19.6608  19.6880
    19.6880  19.9883  19.9883  20.3694  20.4674  20.4674  21.6580  21.6580
    22.0257  22.0257  22.3887  22.3887  22.6820  22.6820  23.2097  23.2097
    24.0099  24.4481  24.7408  24.7408  25.9960  25.9960  26.3513  26.3513
    26.4829  26.4829  26.9518  26.9518  27.5785  27.5785  27.7532  27.8816
    27.8816  28.2806  28.3971  28.3971  28.4780  29.5818  29.7691  29.7691
    29.9140  29.9140  30.3341  30.3492  30.6157  30.6157  30.7680  30.7680
    30.9850  30.9850

          k = 0.0556 0.2778 0.3889 ( 33028 PWs)   bands (ev):

   -64.8619 -64.8543 -64.8477 -64.8421 -64.8366 -64.8327 -64.8318 -64.8295
   -64.8285 -64.8275 -64.8260 -64.8247 -64.8230 -64.8208 -64.8192 -64.8185
   -64.8180 -64.8172 -64.8161 -64.8159 -64.8143 -64.8134 -64.8117 -64.8104
   -64.8103 -64.8101 -64.8101 -64.8089 -64.8086 -64.8079 -64.8069 -64.8066
   -30.7309 -30.7298 -30.7110 -30.7065 -30.7053 -30.7048 -30.7027 -30.7014
   -30.6999 -30.6860 -30.6852 -30.6851 -30.6814 -30.6776 -30.6734 -30.6731
   -30.6725 -30.6656 -30.6653 -30.6647 -30.6586 -30.6554 -30.6480 -30.6469
   -30.6457 -30.6320 -30.6230 -30.6209 -30.6121 -30.5997 -30.5876 -30.5836
   -30.5797 -30.5692 -30.5679 -30.5617 -30.5610 -30.5609 -30.5519 -30.5488
   -30.5354 -30.5294 -30.5270 -30.5221 -30.5196 -30.5191 -30.5133 -30.5116
   -30.5090 -30.5070 -30.5061 -30.5013 -30.4999 -30.4986 -30.4950 -30.4888
   -30.4883 -30.4877 -30.4867 -30.4865 -30.4838 -30.4783 -30.4755 -30.4746
   -30.4734 -30.4715 -30.4669 -30.4667 -30.4649 -30.4626 -30.4623 -30.4618
   -30.4556 -30.4549 -30.4539 -30.4508 -30.4493 -30.4490 -30.4485 -30.4482
   -30.4424 -30.4411 -30.4396 -30.4374 -30.4359 -30.4358 -30.4354 -30.4314
   -30.4264 -30.4259 -30.4179 -30.4075 -30.4055 -30.4018 -30.4002 -30.3879
    12.9277  13.5005  13.9972  14.3198  14.3854  14.3876  14.4007  14.4210
    14.4220  14.5727  14.5738  14.5753  14.5851  14.6092  14.6137  14.6535
    14.6778  14.6831  14.6874  14.7311  14.7424  14.7680  14.8181  14.8332
    14.8503  14.9024  14.9308  14.9433  15.0126  15.0380  15.0640  15.0753
    15.1135  15.2122  15.2166  15.2515  15.2954  15.3227  15.3257  15.3757
    15.3899  15.4395  15.4676  15.5050  15.5429  15.6513  15.6958  15.7138
    15.7330  15.7809  15.8436  15.8746  15.9019  15.9254  15.9782  16.0867
    16.0996  16.0999  16.1839  16.2406  16.2470  16.3052  16.3516  16.3542
    16.3887  16.3907  16.3964  16.4334  16.4644  16.4851  16.5079  16.5958
    16.6010  16.6388  16.6604  16.6628  16.6770  16.7025  16.7103  16.7406
    16.7455  16.7484  16.7615  16.8454  16.8459  16.8658  16.8708  16.8876
    16.8976  16.9744  16.9761  16.9786  17.0550  17.0743  17.1419  17.1571
    17.1675  17.2043  17.2262  17.2369  17.2476  17.2860  17.3082  17.4076
    17.5175  17.5219  17.5425  17.5519  17.5607  17.5727  17.6354  17.6546
    17.6875  17.7203  17.7782  17.7947  17.8079  17.8894  18.0523  18.0955
    18.1049  18.1150  18.1328  18.1390  18.2644  18.2693  18.2835  18.2967
    18.2978  18.3442  18.4496  18.4711  18.4712  18.4822  18.5384  18.5509
    18.5539  18.6278  18.6561  18.6896  18.6951  18.7562  18.7821  18.8520
    18.8659  18.8660  18.8774  18.8777  18.8896  18.8899  18.9187  18.9405
    19.0333  19.0858  19.0919  19.0932  19.0981  19.1001  19.1030  19.1122
    19.1623  19.2315  19.2814  19.2825  19.2935  19.3168  19.5916  19.6700
    19.8953  20.0357  20.1699  20.2670  20.3144  20.4069  21.1565  21.6714
    22.3361  22.3407  22.5396  22.6418  22.9419  23.1219  23.4298  23.9087
    23.9383  24.1375  24.5379  25.1205  25.1332  25.5116  25.7999  26.3669
    26.5575  26.6594  26.7919  26.9219  27.1488  27.1840  27.4409  27.6138
    27.9000  27.9389  28.1349  28.3537  28.9135  29.2356  29.7937  29.8936
    29.9696  30.0108  30.0911  30.1759  30.2678  30.3764  30.9008  30.9086
    31.0738  31.1437

          k = 0.0556 0.2778-0.5000 ( 33018 PWs)   bands (ev):

   -64.8584 -64.8584 -64.8452 -64.8452 -64.8348 -64.8348 -64.8303 -64.8303
   -64.8286 -64.8286 -64.8254 -64.8254 -64.8220 -64.8220 -64.8178 -64.8178
   -64.8170 -64.8170 -64.8152 -64.8152 -64.8129 -64.8129 -64.8122 -64.8122
   -64.8116 -64.8116 -64.8089 -64.8089 -64.8088 -64.8088 -64.8067 -64.8067
   -30.7193 -30.7193 -30.7176 -30.7176 -30.6965 -30.6965 -30.6950 -30.6950
   -30.6950 -30.6950 -30.6839 -30.6839 -30.6839 -30.6839 -30.6808 -30.6808
   -30.6799 -30.6799 -30.6705 -30.6705 -30.6514 -30.6514 -30.6503 -30.6503
   -30.6346 -30.6346 -30.6211 -30.6211 -30.6159 -30.6159 -30.5742 -30.5741
   -30.5725 -30.5725 -30.5657 -30.5657 -30.5599 -30.5599 -30.5483 -30.5483
   -30.5471 -30.5471 -30.5125 -30.5125 -30.5112 -30.5112 -30.5093 -30.5093
   -30.5070 -30.5070 -30.5057 -30.5057 -30.5003 -30.5003 -30.4982 -30.4982
   -30.4872 -30.4872 -30.4846 -30.4846 -30.4782 -30.4782 -30.4777 -30.4777
   -30.4693 -30.4693 -30.4668 -30.4668 -30.4634 -30.4634 -30.4616 -30.4616
   -30.4558 -30.4558 -30.4524 -30.4524 -30.4517 -30.4517 -30.4504 -30.4504
   -30.4448 -30.4448 -30.4423 -30.4423 -30.4376 -30.4376 -30.4297 -30.4297
   -30.4286 -30.4286 -30.4083 -30.4083 -30.4051 -30.4051 -30.3936 -30.3936
    13.1905  13.1905  14.1947  14.1947  14.4289  14.4289  14.4982  14.4982
    14.5210  14.5210  14.5216  14.5216  14.5852  14.5852  14.6274  14.6274
    14.7104  14.7104  14.7385  14.7385  14.7538  14.7538  14.7714  14.7714
    14.8145  14.8145  14.9164  14.9164  14.9595  14.9595  15.0239  15.0239
    15.1981  15.1981  15.2129  15.2129  15.2923  15.2923  15.3569  15.3569
    15.3650  15.3650  15.5463  15.5463  15.5811  15.5811  15.5947  15.5947
    15.8627  15.8627  15.8660  15.8660  15.9731  15.9731  15.9873  15.9873
    16.0089  16.0089  16.1223  16.1223  16.3312  16.3312  16.4189  16.4189
    16.4287  16.4287  16.4555  16.4555  16.4992  16.4992  16.5151  16.5151
    16.5618  16.5618  16.7105  16.7105  16.7575  16.7575  16.7696  16.7696
    16.7886  16.7886  16.8221  16.8221  16.8269  16.8269  16.8406  16.8406
    16.9973  16.9973  17.0204  17.0204  17.1752  17.1752  17.1807  17.1807
    17.1905  17.1905  17.2559  17.2559  17.2694  17.2694  17.2844  17.2844
    17.3419  17.3419  17.5996  17.5996  17.6030  17.6030  17.6556  17.6556
    17.6846  17.6846  17.7105  17.7105  17.7150  17.7150  18.0021  18.0021
    18.0078  18.0078  18.1944  18.1944  18.2232  18.2232  18.2359  18.2359
    18.3972  18.3972  18.5244  18.5244  18.5287  18.5287  18.6502  18.6502
    18.6733  18.6733  18.7176  18.7176  18.7659  18.7659  18.7661  18.7661
    18.8875  18.8875  18.9147  18.9147  18.9409  18.9409  18.9879  18.9879
    18.9900  18.9900  19.0052  19.0052  19.0105  19.0105  19.0261  19.0261
    19.2227  19.2227  19.2872  19.2872  19.2938  19.2938  19.6241  19.6241
    19.7806  19.7806  20.3450  20.3450  20.6604  20.6604  20.9438  20.9438
    22.5378  22.5378  22.9123  22.9123  23.0971  23.0971  23.5329  23.5329
    24.2480  24.2480  24.7233  24.7233  25.1443  25.1443  25.8799  25.8799
    26.6277  26.6277  26.9857  26.9857  27.0582  27.0582  27.3644  27.3644
    27.5288  27.5288  28.7008  28.7008  29.0364  29.0364  29.6137  29.6137
    29.9136  29.9136  30.0534  30.0534  30.4766  30.4766  30.6671  30.6671
    31.3194  31.3195

          k = 0.0556 0.3889 0.3889 ( 33018 PWs)   bands (ev):

   -64.8593 -64.8521 -64.8521 -64.8459 -64.8353 -64.8317 -64.8317 -64.8307
   -64.8291 -64.8278 -64.8278 -64.8259 -64.8186 -64.8186 -64.8169 -64.8169
   -64.8169 -64.8169 -64.8150 -64.8150 -64.8143 -64.8143 -64.8115 -64.8115
   -64.8114 -64.8114 -64.8108 -64.8107 -64.8091 -64.8075 -64.8075 -64.8068
   -30.7237 -30.7237 -30.7009 -30.7009 -30.7000 -30.7000 -30.6977 -30.6971
   -30.6951 -30.6951 -30.6857 -30.6846 -30.6846 -30.6817 -30.6817 -30.6732
   -30.6732 -30.6665 -30.6665 -30.6657 -30.6657 -30.6644 -30.6644 -30.6521
   -30.6498 -30.6498 -30.6351 -30.6208 -30.6158 -30.5996 -30.5996 -30.5740
   -30.5657 -30.5657 -30.5539 -30.5539 -30.5468 -30.5393 -30.5393 -30.5340
   -30.5340 -30.5334 -30.5334 -30.5286 -30.5286 -30.5100 -30.5100 -30.5056
   -30.5056 -30.5051 -30.5051 -30.5035 -30.5019 -30.5019 -30.4997 -30.4997
   -30.4966 -30.4966 -30.4842 -30.4842 -30.4817 -30.4817 -30.4809 -30.4767
   -30.4767 -30.4665 -30.4665 -30.4640 -30.4640 -30.4638 -30.4638 -30.4611
   -30.4554 -30.4550 -30.4550 -30.4537 -30.4537 -30.4512 -30.4483 -30.4441
   -30.4439 -30.4412 -30.4396 -30.4396 -30.4392 -30.4370 -30.4351 -30.4284
   -30.4284 -30.4246 -30.4246 -30.4066 -30.4005 -30.3986 -30.3986 -30.3885
    13.1239  13.6722  13.6722  14.1445  14.3652  14.4587  14.4683  14.5192
    14.5192  14.5518  14.5518  14.5534  14.6686  14.6686  14.6951  14.7132
    14.7132  14.7273  14.7273  14.7288  14.7288  14.7532  14.7532  14.8732
    14.8732  14.8885  14.9048  14.9415  14.9415  15.0461  15.0461  15.0492
    15.0492  15.0741  15.0741  15.1182  15.1182  15.2524  15.2524  15.2665
    15.2665  15.2947  15.2947  15.5311  15.5311  15.5815  15.7703  15.7703
    15.7751  15.7751  15.8715  15.9373  15.9791  15.9791  15.9842  15.9842
    15.9992  16.1911  16.2995  16.2995  16.3529  16.4739  16.4850  16.4850
    16.5226  16.5226  16.5286  16.5286  16.5292  16.5292  16.5674  16.5674
    16.5945  16.6077  16.7512  16.7617  16.7768  16.7768  16.7846  16.8111
    16.8310  16.8422  16.8422  16.8618  16.8631  16.8631  16.9781  16.9781
    16.9883  16.9883  16.9910  16.9910  17.0074  17.0074  17.1066  17.1066
    17.1128  17.1299  17.2026  17.2026  17.2068  17.2686  17.3105  17.3105
    17.3156  17.3253  17.3253  17.3433  17.3433  17.3681  17.3681  17.5286
    17.6366  17.6366  17.6554  17.6554  17.7638  17.8282  17.8282  17.8596
    18.0155  18.1602  18.2563  18.2563  18.3011  18.3011  18.3894  18.3894
    18.4627  18.4627  18.5139  18.5139  18.5712  18.5712  18.5714  18.6773
    18.6773  18.7716  18.7960  18.8001  18.8001  18.8036  18.8036  18.8036
    18.8090  18.8090  18.8731  18.9430  18.9739  18.9739  18.9788  18.9788
    18.9893  19.0779  19.0779  19.1042  19.1042  19.1073  19.1073  19.1109
    19.1349  19.1349  19.1358  19.1358  19.2330  19.3118  19.4286  19.5055
    19.5055  19.9948  19.9948  20.0849  20.7755  20.7755  21.8170  21.8170
    22.2070  22.2070  22.9771  22.9771  23.3403  23.3403  23.4025  23.4025
    23.8208  23.8208  24.9935  24.9935  25.0222  25.7924  26.2101  26.2101
    26.3758  26.3758  26.6243  26.6243  26.7809  26.7809  27.1879  27.1879
    27.2981  27.3113  27.3113  28.6019  28.9891  29.5685  29.9088  29.9137
    29.9137  30.0479  30.4525  30.4525  30.6233  30.6233  31.0415  31.0415
    31.4718  31.4718

          k = 0.0556 0.3889-0.5000 ( 33038 PWs)   bands (ev):

   -64.8560 -64.8560 -64.8493 -64.8493 -64.8337 -64.8337 -64.8305 -64.8305
   -64.8294 -64.8294 -64.8269 -64.8269 -64.8179 -64.8179 -64.8158 -64.8158
   -64.8155 -64.8155 -64.8147 -64.8147 -64.8136 -64.8136 -64.8130 -64.8130
   -64.8127 -64.8127 -64.8111 -64.8111 -64.8082 -64.8082 -64.8071 -64.8071
   -30.7139 -30.7139 -30.7133 -30.7133 -30.6940 -30.6940 -30.6939 -30.6939
   -30.6892 -30.6892 -30.6865 -30.6865 -30.6819 -30.6819 -30.6813 -30.6813
   -30.6753 -30.6753 -30.6682 -30.6682 -30.6664 -30.6664 -30.6630 -30.6630
   -30.6499 -30.6499 -30.6330 -30.6330 -30.6113 -30.6113 -30.5866 -30.5866
   -30.5522 -30.5522 -30.5489 -30.5489 -30.5447 -30.5447 -30.5402 -30.5402
   -30.5254 -30.5254 -30.5209 -30.5209 -30.5201 -30.5201 -30.5185 -30.5185
   -30.5156 -30.5156 -30.5038 -30.5038 -30.4993 -30.4993 -30.4958 -30.4958
   -30.4901 -30.4901 -30.4880 -30.4880 -30.4822 -30.4822 -30.4803 -30.4803
   -30.4734 -30.4734 -30.4732 -30.4732 -30.4599 -30.4599 -30.4599 -30.4599
   -30.4595 -30.4595 -30.4557 -30.4557 -30.4464 -30.4464 -30.4453 -30.4453
   -30.4438 -30.4438 -30.4423 -30.4423 -30.4334 -30.4334 -30.4333 -30.4333
   -30.4318 -30.4318 -30.4148 -30.4148 -30.3981 -30.3981 -30.3923 -30.3923
    13.3755  13.3755  13.8903  13.8903  14.4430  14.4430  14.5454  14.5454
    14.5483  14.5483  14.5825  14.5825  14.6348  14.6348  14.6741  14.6741
    14.6856  14.6856  14.8021  14.8021  14.8240  14.8240  14.8687  14.8687
    14.8727  14.8727  14.8833  14.8833  14.9253  14.9253  14.9970  14.9970
    15.0630  15.0630  15.0867  15.0867  15.1577  15.1577  15.1652  15.1652
    15.1765  15.1765  15.4136  15.4136  15.6355  15.6355  15.6414  15.6414
    15.8652  15.8652  15.8723  15.8723  15.9735  15.9735  16.1034  16.1034
    16.1126  16.1126  16.2557  16.2557  16.3421  16.3421  16.4812  16.4813
    16.5273  16.5273  16.5462  16.5462  16.6526  16.6526  16.6874  16.6874
    16.7713  16.7713  16.8258  16.8258  16.8325  16.8325  16.8333  16.8333
    16.8388  16.8388  16.8567  16.8567  16.9241  16.9241  16.9462  16.9462
    16.9704  16.9704  17.0339  17.0339  17.0342  17.0342  17.0451  17.0451
    17.0531  17.0531  17.0845  17.0845  17.1694  17.1694  17.1712  17.1712
    17.1996  17.1996  17.3925  17.3925  17.4995  17.4995  17.5138  17.5138
    17.5489  17.5489  17.5757  17.5757  17.5874  17.5874  17.6914  17.6914
    18.1436  18.1436  18.2559  18.2559  18.4094  18.4094  18.4217  18.4217
    18.4353  18.4353  18.5529  18.5529  18.6515  18.6515  18.6880  18.6880
    18.6986  18.6986  18.7245  18.7245  18.8319  18.8319  18.9002  18.9002
    18.9053  18.9053  18.9670  18.9670  18.9930  18.9930  19.0107  19.0107
    19.0404  19.0404  19.0433  19.0433  19.0580  19.0580  19.0623  19.0623
    19.1183  19.1183  19.1422  19.1422  19.1731  19.1731  19.4172  19.4172
    19.6156  19.6156  19.9891  19.9891  21.2944  21.2944  21.4667  21.4667
    22.5528  22.5528  22.7696  22.7696  23.2698  23.2698  23.5041  23.5041
    24.2094  24.2094  24.5037  24.5037  25.5899  25.5899  26.4200  26.4200
    26.4715  26.4715  26.5464  26.5464  26.6465  26.6465  26.7740  26.7740
    26.8356  26.8356  27.9406  27.9406  29.6900  29.6900  29.8928  29.8928
    29.9638  29.9638  30.2786  30.2786  31.0251  31.0251  31.1296  31.1296
    31.1574  31.1574

          k = 0.0556-0.5000-0.5000 ( 32992 PWs)   bands (ev):

   -64.8530 -64.8530 -64.8530 -64.8530 -64.8322 -64.8322 -64.8322 -64.8322
   -64.8283 -64.8283 -64.8283 -64.8283 -64.8142 -64.8142 -64.8142 -64.8142
   -64.8142 -64.8142 -64.8142 -64.8142 -64.8141 -64.8141 -64.8141 -64.8141
   -64.8141 -64.8141 -64.8141 -64.8141 -64.8076 -64.8076 -64.8076 -64.8076
   -30.7053 -30.7053 -30.7053 -30.7053 -30.7053 -30.7053 -30.7053 -30.7053
   -30.6791 -30.6791 -30.6791 -30.6791 -30.6790 -30.6790 -30.6790 -30.6790
   -30.6757 -30.6757 -30.6757 -30.6757 -30.6660 -30.6660 -30.6660 -30.6660
   -30.6509 -30.6509 -30.6509 -30.6509 -30.5992 -30.5992 -30.5992 -30.5992
   -30.5329 -30.5329 -30.5329 -30.5329 -30.5329 -30.5329 -30.5329 -30.5329
   -30.5313 -30.5313 -30.5313 -30.5313 -30.5313 -30.5313 -30.5313 -30.5313
   -30.5031 -30.5031 -30.5031 -30.5031 -30.4929 -30.4929 -30.4929 -30.4929
   -30.4929 -30.4929 -30.4929 -30.4929 -30.4929 -30.4929 -30.4929 -30.4929
   -30.4672 -30.4672 -30.4672 -30.4672 -30.4672 -30.4672 -30.4672 -30.4672
   -30.4523 -30.4523 -30.4523 -30.4523 -30.4477 -30.4477 -30.4477 -30.4477
   -30.4391 -30.4391 -30.4391 -30.4391 -30.4370 -30.4370 -30.4370 -30.4370
   -30.4233 -30.4233 -30.4233 -30.4233 -30.3936 -30.3936 -30.3936 -30.3936
    13.6122  13.6122  13.6122  13.6122  14.4825  14.4825  14.4825  14.4825
    14.5992  14.5992  14.5992  14.5992  14.6759  14.6759  14.6759  14.6759
    14.8045  14.8045  14.8045  14.8045  14.8045  14.8045  14.8045  14.8045
    14.9744  14.9744  14.9744  14.9744  14.9744  14.9744  14.9744  14.9744
    15.0142  15.0142  15.0142  15.0142  15.0142  15.0142  15.0142  15.0142
    15.2337  15.2337  15.2337  15.2337  15.7446  15.7446  15.7446  15.7446
    15.7446  15.7446  15.7446  15.7446  16.0546  16.0546  16.0546  16.0546
    16.2984  16.2984  16.2984  16.2984  16.4900  16.4900  16.4900  16.4900
    16.6085  16.6085  16.6085  16.6085  16.6208  16.6208  16.6208  16.6208
    16.8440  16.8440  16.8440  16.8440  16.8726  16.8726  16.8726  16.8726
    16.8726  16.8726  16.8726  16.8726  16.9246  16.9246  16.9246  16.9246
    16.9319  16.9319  16.9319  16.9319  17.0394  17.0394  17.0394  17.0394
    17.1600  17.1600  17.1600  17.1600  17.1600  17.1600  17.1600  17.1600
    17.3236  17.3236  17.3236  17.3236  17.3368  17.3368  17.3368  17.3368
    17.3368  17.3368  17.3368  17.3368  17.6365  17.6365  17.6365  17.6365
    18.2897  18.2897  18.2897  18.2897  18.3794  18.3794  18.3794  18.3794
    18.5764  18.5764  18.5764  18.5764  18.5764  18.5764  18.5764  18.5764
    18.8971  18.8971  18.8971  18.8971  18.9240  18.9240  18.9240  18.9240
    18.9240  18.9240  18.9240  18.9240  19.0371  19.0371  19.0371  19.0371
    19.0695  19.0695  19.0695  19.0695  19.0695  19.0695  19.0695  19.0695
    19.0698  19.0698  19.0698  19.0698  19.1387  19.1387  19.1387  19.1387
    19.7228  19.7228  19.7228  19.7228  22.0073  22.0073  22.0073  22.0073
    22.0073  22.0073  22.0073  22.0073  23.9738  23.9738  23.9738  23.9738
    23.9738  23.9738  23.9738  23.9738  26.1175  26.1175  26.1175  26.1175
    26.4526  26.4526  26.4526  26.4526  26.4526  26.4526  26.4526  26.4526
    27.2160  27.2160  27.2160  27.2160  29.9123  29.9123  29.9123  29.9123
    30.3976  30.3976  30.3976  30.3976  30.9902  30.9902  30.9902  30.9902
    31.5755  31.5755

          k = 0.1667 0.1667 0.1667 ( 32972 PWs)   bands (ev):

   -64.8673 -64.8453 -64.8453 -64.8453 -64.8313 -64.8313 -64.8313 -64.8292
   -64.8292 -64.8292 -64.8254 -64.8211 -64.8211 -64.8211 -64.8211 -64.8211
   -64.8211 -64.8211 -64.8211 -64.8211 -64.8152 -64.8152 -64.8152 -64.8073
   -64.8073 -64.8073 -64.8072 -64.8072 -64.8072 -64.8072 -64.8072 -64.8072
   -30.7450 -30.7450 -30.7450 -30.7310 -30.7232 -30.7232 -30.7232 -30.6709
   -30.6709 -30.6709 -30.6635 -30.6635 -30.6635 -30.6635 -30.6635 -30.6635
   -30.6583 -30.6583 -30.6583 -30.6583 -30.6583 -30.6583 -30.6304 -30.6304
   -30.6304 -30.6160 -30.6160 -30.6159 -30.6015 -30.6015 -30.6015 -30.6015
   -30.6015 -30.6015 -30.5697 -30.5697 -30.5697 -30.5333 -30.5333 -30.5333
   -30.5299 -30.5299 -30.5299 -30.5286 -30.5286 -30.5286 -30.5286 -30.5286
   -30.5286 -30.5158 -30.5158 -30.5158 -30.5127 -30.5127 -30.5127 -30.5127
   -30.5127 -30.5127 -30.4868 -30.4868 -30.4868 -30.4717 -30.4717 -30.4717
   -30.4680 -30.4680 -30.4680 -30.4541 -30.4541 -30.4541 -30.4507 -30.4507
   -30.4507 -30.4447 -30.4447 -30.4447 -30.4447 -30.4447 -30.4447 -30.4412
   -30.4411 -30.4411 -30.4328 -30.4328 -30.4328 -30.4318 -30.4318 -30.4304
   -30.4304 -30.4304 -30.4188 -30.4188 -30.4188 -30.4065 -30.3845 -30.3845
    12.5118  14.1221  14.1221  14.1221  14.1575  14.1734  14.1734  14.1734
    14.2797  14.2797  14.2797  14.4410  14.4410  14.4410  14.6770  14.6770
    14.6770  14.9206  14.9206  14.9206  15.0403  15.0403  15.0403  15.0403
    15.0403  15.0403  15.1127  15.1127  15.1127  15.2542  15.2542  15.2542
    15.2584  15.2584  15.2584  15.2584  15.2584  15.2584  15.5006  15.5006
    15.5006  15.5006  15.5006  15.5006  15.6376  15.6376  15.6376  15.9294
    15.9294  15.9294  16.0213  16.0213  16.0213  16.0213  16.0213  16.0213
    16.0836  16.0836  16.0836  16.1723  16.1723  16.1723  16.1723  16.1723
    16.1723  16.3233  16.3233  16.3233  16.4107  16.4902  16.4902  16.4902
    16.4902  16.4902  16.4902  16.5025  16.5025  16.5025  16.5029  16.5029
    16.5648  16.5648  16.5648  16.5743  16.5743  16.5986  16.5986  16.5986
    16.9901  16.9901  16.9901  17.1600  17.1600  17.1600  17.2923  17.2923
    17.2923  17.3430  17.3430  17.3430  17.4663  17.4663  17.4663  17.5139
    17.5139  17.5139  17.5139  17.5139  17.5139  17.8018  17.8018  17.8018
    17.8471  17.8471  17.8471  17.9244  17.9244  17.9244  18.0003  18.0003
    18.0512  18.0512  18.0512  18.0512  18.0512  18.0512  18.2686  18.2686
    18.2686  18.3623  18.3623  18.3623  18.3623  18.3623  18.3623  18.4785
    18.4785  18.4785  18.5134  18.5134  18.5134  18.8443  18.8443  18.8443
    18.8583  18.8583  18.8583  18.9352  18.9352  18.9352  18.9844  18.9844
    18.9844  19.0276  19.0276  19.2027  19.2027  19.2027  19.2683  19.3493
    19.3493  19.3493  19.3493  19.3493  19.3493  19.4101  19.4101  19.4101
    20.0456  20.0456  20.0456  21.1919  21.1919  21.1919  21.5339  21.5339
    21.5339  21.5339  21.5339  21.5339  22.7819  22.7819  22.7819  23.1711
    23.1711  23.1711  26.2774  26.2774  26.2774  26.2774  26.2774  26.2774
    26.5139  26.5139  26.5139  27.6975  28.0623  28.0623  28.0623  28.0623
    28.0623  28.0623  28.7306  28.7306  28.7306  30.1989  30.1989  30.1994
    30.3519  30.3519  30.3519  30.3519  30.3519  30.3520  30.5487  30.5487
    30.5487  30.5487

          k = 0.1667 0.1667 0.2778 ( 32998 PWs)   bands (ev):

   -64.8654 -64.8504 -64.8441 -64.8441 -64.8346 -64.8346 -64.8308 -64.8286
   -64.8286 -64.8268 -64.8242 -64.8230 -64.8230 -64.8211 -64.8211 -64.8211
   -64.8211 -64.8197 -64.8179 -64.8179 -64.8157 -64.8134 -64.8134 -64.8091
   -64.8084 -64.8084 -64.8079 -64.8079 -64.8073 -64.8073 -64.8072 -64.8072
   -30.7412 -30.7372 -30.7372 -30.7185 -30.7176 -30.7176 -30.7145 -30.6890
   -30.6786 -30.6786 -30.6727 -30.6727 -30.6695 -30.6695 -30.6690 -30.6690
   -30.6637 -30.6637 -30.6585 -30.6585 -30.6570 -30.6570 -30.6468 -30.6413
   -30.6226 -30.6226 -30.6149 -30.6149 -30.6040 -30.6040 -30.5921 -30.5921
   -30.5868 -30.5868 -30.5819 -30.5819 -30.5480 -30.5465 -30.5465 -30.5425
   -30.5425 -30.5377 -30.5377 -30.5250 -30.5152 -30.5152 -30.5141 -30.5141
   -30.5136 -30.5136 -30.5126 -30.5126 -30.5119 -30.5063 -30.5054 -30.5054
   -30.5036 -30.5036 -30.4851 -30.4791 -30.4757 -30.4757 -30.4744 -30.4739
   -30.4739 -30.4648 -30.4644 -30.4644 -30.4615 -30.4615 -30.4569 -30.4569
   -30.4566 -30.4566 -30.4530 -30.4458 -30.4458 -30.4446 -30.4446 -30.4441
   -30.4429 -30.4429 -30.4364 -30.4364 -30.4336 -30.4287 -30.4254 -30.4254
   -30.4216 -30.4200 -30.4196 -30.4178 -30.4152 -30.4152 -30.3886 -30.3861
    12.6529  13.7811  14.1937  14.2080  14.2080  14.2396  14.2546  14.2546
    14.3554  14.3554  14.3924  14.4951  14.5307  14.5307  14.6434  14.7177
    14.7461  14.7461  14.7780  14.7780  14.8774  14.8774  14.9533  15.0140
    15.0140  15.0729  15.0729  15.0885  15.1166  15.1166  15.1738  15.1738
    15.1995  15.1995  15.2143  15.2143  15.2561  15.2561  15.3302  15.3302
    15.5117  15.5117  15.5315  15.5315  15.6883  15.6883  15.8136  15.8502
    15.8502  15.8737  15.8737  15.9153  15.9411  15.9411  16.0308  16.0308
    16.0638  16.0638  16.1521  16.1521  16.1566  16.1566  16.2312  16.2816
    16.2816  16.3451  16.3553  16.4151  16.4151  16.4993  16.4993  16.4997
    16.4997  16.5073  16.5073  16.5222  16.5375  16.6044  16.6044  16.6208
    16.6296  16.6744  16.6744  16.6874  16.6940  16.7822  16.8749  16.8749
    16.8771  16.8771  16.9851  16.9860  17.0916  17.0916  17.1128  17.1636
    17.1636  17.2539  17.2539  17.3039  17.3233  17.3233  17.5744  17.5744
    17.6064  17.6064  17.6485  17.6519  17.6787  17.6787  17.8000  17.8000
    17.8473  17.8473  17.9246  17.9246  17.9276  17.9728  17.9728  17.9733
    18.0019  18.0019  18.0399  18.0444  18.0444  18.0709  18.1486  18.2128
    18.2128  18.3659  18.4088  18.4088  18.5455  18.5455  18.5656  18.5683
    18.5683  18.5781  18.5781  18.5872  18.5872  18.6436  18.6436  18.6699
    18.7821  18.7854  18.7854  18.8861  18.8877  18.8949  18.8949  18.9647
    19.1693  19.1867  19.1867  19.2427  19.2427  19.2450  19.2450  19.2537
    19.2537  19.3523  19.3523  19.3531  19.3534  19.3907  19.3942  19.3942
    19.6547  19.6547  19.9752  21.0487  21.0487  21.2636  21.2636  21.5098
    21.5098  21.8298  22.1709  22.1728  22.1728  23.1323  23.2206  23.2206
    23.8138  23.8138  25.4201  25.4201  25.6445  25.6445  26.3475  26.4430
    26.4430  26.8370  26.8370  27.1859  27.1859  27.8635  28.2293  28.2293
    28.2577  28.2740  28.2740  28.5976  28.5976  29.4582  29.4582  29.8465
    29.8465  30.1433  30.1433  30.4950  30.4950  30.7251  30.7251  30.9452
    30.9452  30.9789

          k = 0.1667 0.1667 0.3889 ( 33010 PWs)   bands (ev):

   -64.8627 -64.8551 -64.8424 -64.8424 -64.8376 -64.8376 -64.8301 -64.8280
   -64.8276 -64.8276 -64.8247 -64.8247 -64.8211 -64.8211 -64.8211 -64.8211
   -64.8195 -64.8185 -64.8164 -64.8149 -64.8149 -64.8118 -64.8117 -64.8117
   -64.8101 -64.8101 -64.8089 -64.8089 -64.8073 -64.8073 -64.8072 -64.8072
   -30.7333 -30.7258 -30.7258 -30.7094 -30.7094 -30.7065 -30.7029 -30.7016
   -30.6954 -30.6954 -30.6865 -30.6865 -30.6715 -30.6715 -30.6685 -30.6685
   -30.6666 -30.6666 -30.6657 -30.6645 -30.6601 -30.6601 -30.6491 -30.6491
   -30.6311 -30.6311 -30.6038 -30.6038 -30.5979 -30.5979 -30.5922 -30.5922
   -30.5811 -30.5811 -30.5723 -30.5723 -30.5627 -30.5627 -30.5560 -30.5560
   -30.5475 -30.5475 -30.5250 -30.5178 -30.5131 -30.5131 -30.5125 -30.5125
   -30.5061 -30.5029 -30.5029 -30.4975 -30.4970 -30.4970 -30.4952 -30.4952
   -30.4924 -30.4924 -30.4894 -30.4827 -30.4827 -30.4825 -30.4807 -30.4707
   -30.4707 -30.4700 -30.4700 -30.4670 -30.4670 -30.4622 -30.4622 -30.4611
   -30.4591 -30.4591 -30.4513 -30.4490 -30.4490 -30.4468 -30.4444 -30.4444
   -30.4438 -30.4438 -30.4431 -30.4431 -30.4396 -30.4367 -30.4261 -30.4216
   -30.4199 -30.4199 -30.4142 -30.4142 -30.4113 -30.4067 -30.3945 -30.3903
    12.8597  13.4387  14.2692  14.3278  14.3278  14.3321  14.3723  14.3723
    14.4681  14.4681  14.5343  14.5365  14.5530  14.5754  14.6252  14.6252
    14.6624  14.6624  14.6949  14.6949  14.7991  14.7991  14.8077  14.8399
    14.8399  14.8961  15.0321  15.0321  15.0647  15.0647  15.1096  15.1096
    15.1777  15.1777  15.2203  15.2203  15.3314  15.3314  15.3616  15.3616
    15.5293  15.5293  15.5898  15.5898  15.6799  15.6799  15.7149  15.7149
    15.7615  15.7615  15.7801  15.7801  15.9475  15.9475  15.9610  15.9804
    16.1140  16.1140  16.1333  16.1809  16.1809  16.2289  16.2289  16.2589
    16.3261  16.3261  16.3375  16.3375  16.4631  16.5077  16.5077  16.5102
    16.5102  16.5223  16.6049  16.6309  16.6309  16.7046  16.7120  16.7654
    16.7654  16.7787  16.7787  16.8176  16.8187  16.8187  16.8194  16.8194
    16.8319  16.9212  16.9549  17.0207  17.0751  17.1305  17.1714  17.1714
    17.1880  17.1880  17.2292  17.2292  17.2941  17.2941  17.6330  17.6330
    17.6406  17.6740  17.6860  17.6860  17.7007  17.7007  17.7974  17.7974
    17.8264  17.8264  17.8290  17.8302  17.8302  17.9252  17.9252  17.9496
    17.9496  17.9782  18.0009  18.0118  18.0118  18.0980  18.1690  18.1690
    18.2632  18.2961  18.3670  18.4054  18.4054  18.4927  18.4927  18.5637
    18.6982  18.6982  18.7119  18.7200  18.7200  18.7469  18.7624  18.7624
    18.7655  18.7655  18.7870  18.7870  18.7934  18.7934  18.8318  19.0788
    19.0922  19.1045  19.1045  19.1051  19.1051  19.1067  19.1067  19.2763
    19.3007  19.3007  19.3575  19.3575  19.3782  19.3782  19.5541  19.6802
    19.6802  19.8693  20.0149  20.5798  20.5798  21.3433  21.3433  21.4513
    21.4706  21.4706  22.3807  22.8914  22.8914  23.0230  23.7662  23.7662
    24.5190  24.5190  24.5352  24.5352  25.0032  25.0032  26.0803  26.0803
    26.3650  26.9708  26.9708  27.1372  27.3098  27.3098  27.7528  27.7528
    28.5739  28.5739  28.6398  28.6398  28.8894  29.1154  29.1154  29.3746
    29.3746  29.9755  29.9755  30.3511  30.4693  30.4693  30.6744  30.6744
    30.8658  30.8658

          k = 0.1667 0.1667-0.5000 ( 33000 PWs)   bands (ev):

   -64.8592 -64.8592 -64.8402 -64.8402 -64.8402 -64.8402 -64.8292 -64.8291
   -64.8263 -64.8263 -64.8263 -64.8263 -64.8211 -64.8211 -64.8211 -64.8211
   -64.8174 -64.8174 -64.8153 -64.8153 -64.8123 -64.8123 -64.8123 -64.8123
   -64.8101 -64.8101 -64.8101 -64.8101 -64.8072 -64.8072 -64.8072 -64.8072
   -30.7215 -30.7215 -30.7117 -30.7117 -30.7117 -30.7117 -30.6990 -30.6990
   -30.6990 -30.6990 -30.6849 -30.6849 -30.6848 -30.6848 -30.6713 -30.6713
   -30.6713 -30.6713 -30.6630 -30.6630 -30.6630 -30.6630 -30.6402 -30.6402
   -30.6402 -30.6402 -30.5998 -30.5998 -30.5998 -30.5998 -30.5803 -30.5803
   -30.5803 -30.5803 -30.5689 -30.5689 -30.5689 -30.5689 -30.5591 -30.5591
   -30.5591 -30.5590 -30.5126 -30.5126 -30.5126 -30.5126 -30.5085 -30.5085
   -30.5027 -30.5027 -30.4985 -30.4985 -30.4920 -30.4920 -30.4920 -30.4919
   -30.4831 -30.4831 -30.4831 -30.4831 -30.4812 -30.4812 -30.4812 -30.4812
   -30.4809 -30.4809 -30.4809 -30.4809 -30.4573 -30.4573 -30.4536 -30.4536
   -30.4536 -30.4536 -30.4518 -30.4518 -30.4518 -30.4518 -30.4492 -30.4492
   -30.4489 -30.4489 -30.4443 -30.4443 -30.4443 -30.4443 -30.4236 -30.4236
   -30.4159 -30.4159 -30.4159 -30.4159 -30.4022 -30.4022 -30.3974 -30.3974
    13.1254  13.1254  14.3833  14.3833  14.4415  14.4415  14.4711  14.4711
    14.4711  14.4711  14.5217  14.5217  14.5217  14.5217  14.6165  14.6165
    14.6165  14.6165  14.6804  14.6804  14.7071  14.7071  14.8318  14.8318
    14.8318  14.8318  14.9493  14.9493  14.9493  14.9493  15.1441  15.1441
    15.1441  15.1441  15.3222  15.3222  15.3222  15.3222  15.5060  15.5060
    15.5060  15.5060  15.5703  15.5703  15.5703  15.5703  15.6768  15.6768
    15.6768  15.6768  15.8516  15.8516  15.8516  15.8516  16.0392  16.0392
    16.1312  16.1312  16.1709  16.1709  16.1710  16.1710  16.2425  16.2425
    16.2425  16.2425  16.5046  16.5046  16.5116  16.5116  16.5116  16.5116
    16.5627  16.5627  16.5627  16.5627  16.6819  16.6819  16.6819  16.6819
    16.7038  16.7038  16.8127  16.8127  16.8208  16.8208  16.8921  16.8921
    16.8921  16.8921  16.9651  16.9651  17.2091  17.2091  17.2091  17.2091
    17.2960  17.2960  17.2960  17.2960  17.3737  17.3737  17.4797  17.4797
    17.7215  17.7215  17.7297  17.7297  17.7297  17.7297  17.7477  17.7477
    17.7477  17.7477  17.8223  17.8223  17.8223  17.8223  17.8984  17.8984
    17.8984  17.8984  17.9402  17.9402  17.9402  17.9402  18.1731  18.1731
    18.2910  18.2910  18.5126  18.5126  18.5700  18.5700  18.5957  18.5957
    18.5957  18.5957  18.5974  18.5974  18.5974  18.5974  18.9419  18.9419
    18.9419  18.9419  18.9505  18.9505  18.9505  18.9505  18.9686  18.9686
    18.9686  18.9686  18.9769  18.9769  18.9841  18.9841  18.9841  18.9841
    19.1836  19.1836  19.3658  19.3658  19.3658  19.3658  19.7283  19.7283
    20.1236  20.1236  20.1236  20.1236  20.7137  20.7137  21.4148  21.4148
    21.4148  21.4148  22.7854  22.7854  23.6835  23.6835  23.6835  23.6835
    24.3703  24.3703  24.3703  24.3703  25.2857  25.2857  25.2857  25.2857
    26.6227  26.6227  27.3173  27.3173  27.3173  27.3173  27.9170  27.9170
    27.9170  27.9170  28.9460  28.9460  28.9460  28.9460  29.5889  29.5889
    29.6016  29.6016  29.6016  29.6016  30.5015  30.5015  30.5015  30.5015
    31.0363  31.0363

          k = 0.1667 0.2778 0.2778 ( 33025 PWs)   bands (ev):

   -64.8636 -64.8491 -64.8491 -64.8430 -64.8382 -64.8339 -64.8339 -64.8286
   -64.8279 -64.8236 -64.8236 -64.8228 -64.8228 -64.8215 -64.8193 -64.8193
   -64.8193 -64.8193 -64.8181 -64.8181 -64.8140 -64.8140 -64.8119 -64.8091
   -64.8091 -64.8090 -64.8090 -64.8086 -64.8086 -64.8077 -64.8077 -64.8073
   -30.7351 -30.7351 -30.7285 -30.7123 -30.7100 -30.7100 -30.7048 -30.6877
   -30.6877 -30.6830 -30.6830 -30.6747 -30.6747 -30.6708 -30.6708 -30.6702
   -30.6702 -30.6684 -30.6684 -30.6677 -30.6659 -30.6659 -30.6455 -30.6455
   -30.6311 -30.6311 -30.6305 -30.5968 -30.5934 -30.5934 -30.5922 -30.5890
   -30.5890 -30.5784 -30.5784 -30.5603 -30.5587 -30.5587 -30.5470 -30.5323
   -30.5323 -30.5292 -30.5292 -30.5278 -30.5278 -30.5207 -30.5207 -30.5101
   -30.5101 -30.5101 -30.5061 -30.5061 -30.5034 -30.5034 -30.5027 -30.5027
   -30.4979 -30.4979 -30.4893 -30.4893 -30.4763 -30.4763 -30.4734 -30.4718
   -30.4718 -30.4671 -30.4651 -30.4629 -30.4629 -30.4614 -30.4600 -30.4600
   -30.4591 -30.4591 -30.4580 -30.4561 -30.4561 -30.4475 -30.4475 -30.4463
   -30.4463 -30.4459 -30.4339 -30.4321 -30.4306 -30.4278 -30.4274 -30.4249
   -30.4249 -30.4168 -30.4168 -30.4135 -30.4135 -30.4095 -30.3918 -30.3868
    12.7896  13.8789  13.8789  14.2095  14.2620  14.3194  14.3199  14.3199
    14.4111  14.4722  14.4722  14.5846  14.5847  14.5847  14.6179  14.6179
    14.6300  14.7125  14.7125  14.7619  14.8923  14.8923  14.9454  14.9454
    14.9606  14.9606  15.0452  15.0452  15.0994  15.0994  15.1035  15.1035
    15.1133  15.1311  15.1311  15.2050  15.2050  15.2926  15.2926  15.3280
    15.3393  15.3393  15.5273  15.5273  15.7661  15.7661  15.7740  15.8306
    15.8432  15.8432  15.8508  15.8508  15.8958  15.8958  16.0242  16.0855
    16.0855  16.1725  16.1725  16.2057  16.2057  16.2600  16.3229  16.3230
    16.3230  16.3522  16.3522  16.4494  16.4494  16.4675  16.4675  16.5390
    16.5809  16.5914  16.6461  16.6461  16.6517  16.6714  16.7029  16.7350
    16.7350  16.7445  16.7623  16.7623  16.7811  16.7811  16.8095  16.8555
    16.8555  16.9058  16.9058  16.9502  16.9946  16.9946  17.0899  17.0899
    17.1058  17.1679  17.3508  17.3508  17.3898  17.3898  17.4145  17.4145
    17.4798  17.4798  17.6683  17.6869  17.7030  17.7054  17.7234  17.7234
[...]
    21.1303  21.1303  21.1303  21.1303  22.2589  22.2589  22.2589  22.2589
    22.2589  22.2589  22.2590  22.2590  23.4888  23.4888  23.4888  23.4888
    23.4888  23.4888  23.4888  23.4888  24.6457  24.6457  24.6457  24.6457
    27.0779  27.0779  27.0779  27.0779  27.0779  27.0779  27.0779  27.0779
    27.5489  27.5489  27.5489  27.5489  29.2422  29.2422  29.2422  29.2422
    29.7936  29.7936  29.7936  29.7936  29.7936  29.7936  29.7936  29.7936
    31.4637  31.4637

          k = 0.3888 0.3888 0.3888 ( 33050 PWs)   bands (ev):

   -64.8775 -64.8711 -64.8711 -64.8711 -64.8656 -64.8656 -64.8656 -64.8611
   -64.8410 -64.8410 -64.8410 -64.8400 -64.8400 -64.8400 -64.8400 -64.8400
   -64.8400 -64.8400 -64.8400 -64.8400 -64.8355 -64.8355 -64.8355 -64.8346
   -64.8345 -64.8345 -64.8345 -64.8345 -64.8345 -64.8345 -64.8345 -64.8345
   -30.7305 -30.7305 -30.7305 -30.7176 -30.7176 -30.7176 -30.7143 -30.7143
   -30.7143 -30.7115 -30.7115 -30.7115 -30.7115 -30.7115 -30.7115 -30.7106
   -30.7106 -30.7106 -30.7106 -30.7106 -30.7106 -30.7000 -30.7000 -30.7000
   -30.6566 -30.6151 -30.6151 -30.6151 -30.5794 -30.5794 -30.5794 -30.5794
   -30.5794 -30.5794 -30.5761 -30.5761 -30.5761 -30.5727 -30.5727 -30.5727
   -30.5679 -30.5679 -30.5679 -30.5401 -30.5401 -30.5401 -30.5401 -30.5401
   -30.5401 -30.5337 -30.5337 -30.5337 -30.5290 -30.5290 -30.5290 -30.5287
   -30.5165 -30.5165 -30.5165 -30.5094 -30.5094 -30.5094 -30.5094 -30.5094
   -30.5094 -30.5024 -30.5024 -30.5024 -30.4969 -30.4969 -30.4969 -30.4947
   -30.4947 -30.4947 -30.4947 -30.4947 -30.4947 -30.4869 -30.4869 -30.4869
   -30.4472 -30.4472 -30.4472 -30.4409 -30.4409 -30.4364 -30.4364 -30.4364
   -30.4310 -30.4310 -30.4310 -30.4291 -30.4291 -30.4291 -30.4221 -30.4221
    13.4286  13.8562  13.8562  13.8562  14.1127  14.1127  14.1127  14.1539
    14.5902  14.5902  14.5902  14.7177  14.7177  14.7177  14.7364  14.7364
    14.7364  14.8007  14.8007  14.8007  14.8007  14.8007  14.8007  14.8286
    14.8286  14.8286  14.8286  14.8286  14.8286  14.8626  14.8626  14.8626
    15.0505  15.0505  15.0505  15.3300  15.3300  15.3300  15.3961  15.3961
    15.3961  15.3962  15.3962  15.3962  15.6638  15.6638  15.6638  15.6769
    15.6769  15.6769  15.6769  15.6769  15.6769  15.8894  15.8894  15.8894
    16.2058  16.2058  16.2058  16.2438  16.4365  16.4365  16.4365  16.6732
    16.6732  16.6938  16.6938  16.6938  16.6938  16.6938  16.6938  16.7536
    16.7536  16.7626  16.7626  16.7626  16.7860  16.7860  16.7860  16.7866
    16.7866  16.7866  16.8285  16.8285  16.8285  16.8561  16.8561  16.8561
    16.9261  16.9261  16.9261  16.9287  16.9287  16.9287  16.9287  16.9287
    16.9287  17.0316  17.0316  17.0316  17.0806  17.2057  17.2057  17.2057
    17.4627  17.4627  17.4627  17.5582  17.5582  17.5582  17.5593  17.5593
    17.5593  17.5593  17.5593  17.5593  17.7643  17.7643  17.7643  17.9039
    17.9039  17.9039  17.9039  17.9039  17.9039  17.9612  17.9612  17.9612
    17.9880  17.9880  18.0270  18.0270  18.0270  18.1437  18.1437  18.1437
    18.2839  18.2839  18.2839  18.4401  18.4401  18.5701  18.5701  18.5701
    19.1150  19.1150  19.1150  19.1545  19.1545  19.1545  19.1545  19.1545
    19.1545  19.1902  19.1902  19.1902  19.1902  19.1902  19.1902  19.2206
    19.2206  19.2206  19.2279  19.2279  19.2279  19.2863  19.2863  19.2863
    21.3236  21.3236  21.3236  22.0809  22.0809  22.0809  22.0809  22.0809
    22.0809  22.4733  22.4733  22.4733  22.9666  22.9666  22.9666  23.8321
    23.8321  23.8321  23.8321  23.8321  23.8321  24.2968  24.2968  24.2968
    26.7066  26.7066  26.7066  27.4305  27.4305  27.4305  27.9493  27.9493
    27.9493  27.9493  27.9493  27.9493  28.8004  28.8004  28.8004  28.8004
    28.8004  28.8004  29.2829  29.2829  29.2829  30.1958  30.1958  30.1958
    31.4459  32.3144

          k = 0.3888 0.3888-0.4998 ( 33016 PWs)   bands (ev):

   -64.8746 -64.8746 -64.8686 -64.8686 -64.8686 -64.8686 -64.8635 -64.8635
   -64.8405 -64.8405 -64.8405 -64.8405 -64.8400 -64.8400 -64.8400 -64.8400
   -64.8375 -64.8375 -64.8375 -64.8375 -64.8370 -64.8370 -64.8370 -64.8370
   -64.8350 -64.8350 -64.8350 -64.8350 -64.8345 -64.8345 -64.8345 -64.8345
   -30.7260 -30.7260 -30.7214 -30.7214 -30.7214 -30.7214 -30.7141 -30.7141
   -30.7141 -30.7141 -30.7126 -30.7126 -30.7126 -30.7126 -30.7125 -30.7125
   -30.7125 -30.7125 -30.7085 -30.7085 -30.7058 -30.7058 -30.7058 -30.7058
   -30.6359 -30.6359 -30.5936 -30.5936 -30.5936 -30.5936 -30.5786 -30.5786
   -30.5786 -30.5786 -30.5740 -30.5740 -30.5740 -30.5740 -30.5598 -30.5598
   -30.5598 -30.5598 -30.5521 -30.5521 -30.5515 -30.5515 -30.5502 -30.5502
   -30.5362 -30.5362 -30.5362 -30.5362 -30.5337 -30.5337 -30.5337 -30.5337
   -30.5126 -30.5126 -30.5126 -30.5126 -30.5100 -30.5100 -30.5029 -30.5029
   -30.5029 -30.5029 -30.5028 -30.5028 -30.5028 -30.5028 -30.4987 -30.4987
   -30.4987 -30.4987 -30.4924 -30.4924 -30.4911 -30.4911 -30.4911 -30.4911
   -30.4424 -30.4424 -30.4402 -30.4402 -30.4402 -30.4402 -30.4355 -30.4355
   -30.4295 -30.4295 -30.4295 -30.4295 -30.4287 -30.4287 -30.4241 -30.4241
    13.6276  13.6277  13.9768  13.9768  13.9769  13.9769  14.1251  14.1251
    14.6583  14.6583  14.6799  14.6799  14.6799  14.6799  14.7623  14.7623
    14.7623  14.7623  14.7742  14.7742  14.7742  14.7742  14.8124  14.8124
    14.8213  14.8213  14.8213  14.8213  14.8260  14.8260  14.8260  14.8260
    15.1754  15.1754  15.2238  15.2238  15.2238  15.2238  15.5123  15.5123
    15.5123  15.5123  15.5186  15.5186  15.5186  15.5186  15.5394  15.5394
    15.5394  15.5394  15.7607  15.7607  15.8008  15.8008  15.8008  15.8008
    16.2413  16.2413  16.3333  16.3333  16.3333  16.3333  16.6753  16.6753
    16.7158  16.7158  16.7672  16.7672  16.7672  16.7672  16.7741  16.7741
    16.7811  16.7811  16.7978  16.7978  16.7978  16.7978  16.7996  16.7997
    16.7997  16.7997  16.8023  16.8023  16.8071  16.8071  16.8071  16.8071
    16.8538  16.8538  16.8538  16.8538  16.8821  16.8821  16.8967  16.8967
    16.8967  16.8967  17.2022  17.2022  17.2022  17.2022  17.2533  17.2533
    17.3592  17.3592  17.3592  17.3592  17.3775  17.3775  17.6443  17.6443
    17.6443  17.6443  17.7126  17.7126  17.7126  17.7126  17.7352  17.7352
    17.7352  17.7352  17.9414  17.9414  17.9555  17.9555  18.0125  18.0125
    18.0125  18.0125  18.0133  18.0133  18.0133  18.0133  18.1283  18.1283
    18.2351  18.2351  18.3764  18.3764  18.3764  18.3764  18.4847  18.4847
    19.1675  19.1675  19.1675  19.1675  19.1852  19.1852  19.1896  19.1896
    19.1896  19.1896  19.2150  19.2150  19.2150  19.2150  19.2173  19.2173
    19.2173  19.2173  19.2491  19.2491  19.2491  19.2491  19.2732  19.2732
    21.6808  21.6808  21.6808  21.6808  22.1302  22.1302  22.2656  22.2656
    22.2656  22.2657  22.9357  22.9357  22.9357  22.9357  23.3778  23.3778
    23.3864  23.3864  23.3864  23.3864  24.0900  24.0900  24.0900  24.0900
    27.0258  27.0258  27.2466  27.2466  27.2466  27.2466  28.0657  28.0657
    28.0657  28.0657  28.3432  28.3432  28.3432  28.3432  28.5856  28.5856
    28.5856  28.5856  29.4694  29.4694  29.4694  29.4694  29.7072  29.7072
    32.1460  32.1460

          k = 0.3888-0.4998-0.4998 ( 33040 PWs)   bands (ev):

   -64.8718 -64.8718 -64.8718 -64.8718 -64.8663 -64.8663 -64.8663 -64.8663
   -64.8403 -64.8403 -64.8403 -64.8403 -64.8373 -64.8373 -64.8373 -64.8373
   -64.8373 -64.8373 -64.8373 -64.8373 -64.8372 -64.8372 -64.8372 -64.8372
   -64.8372 -64.8372 -64.8372 -64.8372 -64.8347 -64.8347 -64.8347 -64.8347
   -30.7196 -30.7196 -30.7196 -30.7196 -30.7196 -30.7196 -30.7196 -30.7196
   -30.7138 -30.7138 -30.7138 -30.7138 -30.7133 -30.7133 -30.7133 -30.7133
   -30.7106 -30.7106 -30.7106 -30.7106 -30.7106 -30.7106 -30.7106 -30.7106
   -30.6148 -30.6148 -30.6148 -30.6148 -30.5770 -30.5770 -30.5770 -30.5770
   -30.5716 -30.5716 -30.5716 -30.5716 -30.5560 -30.5560 -30.5560 -30.5560
   -30.5560 -30.5560 -30.5560 -30.5560 -30.5556 -30.5556 -30.5556 -30.5556
   -30.5556 -30.5556 -30.5556 -30.5556 -30.5343 -30.5343 -30.5343 -30.5343
   -30.5073 -30.5073 -30.5073 -30.5073 -30.5063 -30.5063 -30.5063 -30.5063
   -30.5063 -30.5063 -30.5063 -30.5063 -30.4975 -30.4975 -30.4975 -30.4975
   -30.4975 -30.4975 -30.4975 -30.4975 -30.4951 -30.4951 -30.4951 -30.4951
   -30.4382 -30.4382 -30.4382 -30.4382 -30.4335 -30.4335 -30.4335 -30.4335
   -30.4330 -30.4330 -30.4330 -30.4330 -30.4260 -30.4260 -30.4260 -30.4260
    13.7914  13.7914  13.7914  13.7914  14.0442  14.0442  14.0442  14.0442
    14.7285  14.7285  14.7285  14.7285  14.7285  14.7285  14.7285  14.7285
    14.7368  14.7368  14.7368  14.7368  14.7590  14.7590  14.7590  14.7590
    14.8108  14.8108  14.8108  14.8108  14.8108  14.8108  14.8108  14.8108
    15.3515  15.3515  15.3515  15.3515  15.3515  15.3515  15.3515  15.3515
    15.3879  15.3879  15.3879  15.3879  15.6534  15.6534  15.6534  15.6534
    15.6534  15.6534  15.6534  15.6534  15.6746  15.6746  15.6746  15.6746
    16.3031  16.3031  16.3031  16.3031  16.5496  16.5496  16.5496  16.5496
    16.7398  16.7398  16.7398  16.7398  16.7511  16.7511  16.7511  16.7511
    16.7742  16.7742  16.7742  16.7742  16.7771  16.7771  16.7771  16.7771
    16.8179  16.8179  16.8179  16.8179  16.8403  16.8403  16.8403  16.8403
    16.8403  16.8403  16.8403  16.8403  17.0296  17.0296  17.0296  17.0296
    17.0296  17.0296  17.0296  17.0296  17.0609  17.0609  17.0609  17.0609
    17.4732  17.4732  17.4732  17.4732  17.5336  17.5336  17.5336  17.5336
    17.5336  17.5336  17.5336  17.5336  17.8304  17.8304  17.8304  17.8304
    17.8304  17.8304  17.8304  17.8304  17.8416  17.8416  17.8416  17.8416
    17.9813  17.9813  17.9813  17.9813  18.1782  18.1782  18.1782  18.1782
    18.2090  18.2090  18.2090  18.2090  18.3473  18.3473  18.3473  18.3473
    19.2101  19.2101  19.2101  19.2101  19.2101  19.2101  19.2101  19.2101
    19.2224  19.2224  19.2224  19.2224  19.2455  19.2455  19.2455  19.2455
    19.2491  19.2491  19.2491  19.2491  19.2491  19.2491  19.2491  19.2491
    21.9517  21.9517  21.9517  21.9517  22.5165  22.5165  22.5165  22.5165
    22.5165  22.5165  22.5165  22.5165  23.1597  23.1597  23.1597  23.1597
    23.1597  23.1597  23.1598  23.1598  23.7339  23.7339  23.7339  23.7339
    27.6235  27.6235  27.6235  27.6235  27.6236  27.6236  27.6236  27.6236
    27.8692  27.8692  27.8692  27.8692  28.7304  28.7304  28.7304  28.7304
    28.9952  28.9952  28.9952  28.9952  28.9952  28.9952  28.9952  28.9952
    32.5331  32.5331

          k =-0.4998-0.4998-0.4998 ( 32968 PWs)   bands (ev):

   -64.8693 -64.8693 -64.8693 -64.8693 -64.8693 -64.8693 -64.8693 -64.8693
   -64.8373 -64.8373 -64.8373 -64.8373 -64.8373 -64.8373 -64.8373 -64.8373
   -64.8373 -64.8373 -64.8373 -64.8373 -64.8373 -64.8373 -64.8373 -64.8373
   -64.8373 -64.8373 -64.8373 -64.8373 -64.8373 -64.8373 -64.8373 -64.8372
   -30.7151 -30.7151 -30.7151 -30.7151 -30.7151 -30.7151 -30.7151 -30.7151
   -30.7151 -30.7151 -30.7151 -30.7151 -30.7151 -30.7151 -30.7151 -30.7151
   -30.7151 -30.7151 -30.7151 -30.7151 -30.7151 -30.7151 -30.7151 -30.7151
   -30.5930 -30.5930 -30.5930 -30.5930 -30.5930 -30.5930 -30.5930 -30.5930
   -30.5558 -30.5558 -30.5558 -30.5558 -30.5558 -30.5558 -30.5558 -30.5558
   -30.5558 -30.5558 -30.5558 -30.5558 -30.5558 -30.5558 -30.5558 -30.5558
   -30.5558 -30.5558 -30.5558 -30.5558 -30.5558 -30.5558 -30.5558 -30.5558
   -30.5017 -30.5017 -30.5017 -30.5017 -30.5017 -30.5017 -30.5017 -30.5017
   -30.5017 -30.5017 -30.5017 -30.5017 -30.5017 -30.5017 -30.5017 -30.5017
   -30.5017 -30.5017 -30.5017 -30.5017 -30.5017 -30.5017 -30.5017 -30.5017
   -30.4315 -30.4315 -30.4315 -30.4315 -30.4315 -30.4315 -30.4315 -30.4315
   -30.4315 -30.4315 -30.4315 -30.4315 -30.4315 -30.4315 -30.4315 -30.4315
    13.9100  13.9100  13.9100  13.9100  13.9100  13.9100  13.9100  13.9100
    14.7584  14.7584  14.7584  14.7584  14.7584  14.7584  14.7584  14.7584
    14.7584  14.7584  14.7584  14.7584  14.7584  14.7584  14.7584  14.7584
    14.7584  14.7584  14.7584  14.7584  14.7584  14.7584  14.7584  14.7584
    15.5140  15.5140  15.5140  15.5140  15.5140  15.5140  15.5140  15.5140
    15.5140  15.5140  15.5140  15.5140  15.5140  15.5140  15.5140  15.5140
    15.5140  15.5140  15.5140  15.5140  15.5140  15.5140  15.5140  15.5140
    16.4442  16.4442  16.4442  16.4442  16.4442  16.4442  16.4442  16.4442
    16.7524  16.7524  16.7524  16.7524  16.7524  16.7524  16.7524  16.7524
    16.7524  16.7524  16.7524  16.7524  16.7524  16.7524  16.7524  16.7524
    16.9377  16.9377  16.9377  16.9377  16.9377  16.9377  16.9377  16.9377
    16.9377  16.9377  16.9377  16.9377  16.9377  16.9377  16.9377  16.9377
    16.9377  16.9377  16.9377  16.9377  16.9377  16.9377  16.9377  16.9377
    17.6555  17.6555  17.6555  17.6555  17.6555  17.6555  17.6555  17.6555
    17.6555  17.6555  17.6555  17.6555  17.6555  17.6555  17.6555  17.6555
    17.6555  17.6555  17.6555  17.6555  17.6555  17.6555  17.6555  17.6555
    18.1607  18.1607  18.1607  18.1607  18.1607  18.1607  18.1607  18.1607
    18.1607  18.1607  18.1607  18.1607  18.1607  18.1607  18.1607  18.1607
    19.2515  19.2515  19.2515  19.2515  19.2515  19.2515  19.2515  19.2515
    19.2515  19.2515  19.2515  19.2515  19.2515  19.2515  19.2515  19.2515
    19.2515  19.2515  19.2515  19.2515  19.2515  19.2515  19.2515  19.2515
    22.8255  22.8255  22.8255  22.8255  22.8255  22.8255  22.8255  22.8255
    22.8255  22.8255  22.8255  22.8255  22.8255  22.8255  22.8255  22.8255
    22.8255  22.8255  22.8255  22.8255  22.8255  22.8256  22.8256  22.8256
    28.2678  28.2678  28.2678  28.2678  28.2678  28.2678  28.2678  28.2678
    28.2678  28.2678  28.2678  28.2678  28.2678  28.2678  28.2679  28.2679
    28.2679  28.2679  28.2679  28.2679  28.2679  28.2679  28.2679  28.2679
    33.4967  33.4967

     the Fermi energy is    19.2726 ev

!    total energy              =  -16384.95847835 Ry

     total all-electron energy =   -322945.812185 Ry
     estimated scf accuracy    <          4.1E-09 Ry
     smearing contrib. (-TS)   =       0.03317998 Ry
     internal energy E=F+TS    =  -16384.99165832 Ry

     The total energy is F=E-TS. E is the sum of the following terms:
     one-electron contribution =   -2487.79849886 Ry
     hartree contribution      =    1661.32271182 Ry
     xc contribution           =    -986.50624512 Ry
     ewald contribution        =   -6404.58366750 Ry
     one-center paw contrib.   =   -8167.42595867 Ry

     convergence has been achieved in  14 iterations

     Forces acting on atoms (cartesian axes, Ry/au):

     atom    1 type  1   force =     0.00000000    0.00000000    0.00000000
     atom    2 type  1   force =     0.00000692    0.00000692    0.00000000
     atom    3 type  1   force =     0.00000692    0.00000000    0.00000692
     atom    4 type  1   force =     0.00000000    0.00000692    0.00000692
     atom    5 type  1   force =     0.00000000    0.00000000    0.00000000
     atom    6 type  1   force =     0.00001635    0.00001635    0.00000000
     atom    7 type  1   force =     0.00000692    0.00000000   -0.00000692
     atom    8 type  1   force =     0.00000000    0.00000692   -0.00000692
     atom    9 type  1   force =     0.00000000    0.00000000    0.00000000
     atom   10 type  1   force =     0.00000692   -0.00000692    0.00000000
     atom   11 type  1   force =     0.00001635    0.00000000    0.00001635
     atom   12 type  1   force =     0.00000000   -0.00000692    0.00000692
     atom   13 type  1   force =     0.00000000    0.00000000    0.00000000
     atom   14 type  1   force =     0.00001635   -0.00001635    0.00000000
     atom   15 type  1   force =     0.00001635    0.00000000   -0.00001635
     atom   16 type  1   force =     0.00000000   -0.00000692   -0.00000692
     atom   17 type  1   force =     0.00000000    0.00000000    0.00000000
     atom   18 type  1   force =    -0.00000692    0.00000692    0.00000000
     atom   19 type  1   force =    -0.00000692    0.00000000    0.00000692
     atom   20 type  1   force =     0.00000000    0.00001635    0.00001635
     atom   21 type  1   force =     0.00000000    0.00000000    0.00000000
     atom   22 type  1   force =    -0.00001635    0.00001635    0.00000000
     atom   23 type  1   force =    -0.00000692    0.00000000   -0.00000692
     atom   24 type  1   force =     0.00000000    0.00001635   -0.00001635
     atom   25 type  1   force =     0.00000000    0.00000000    0.00000000
     atom   26 type  1   force =    -0.00000692   -0.00000692    0.00000000
     atom   27 type  1   force =    -0.00001635    0.00000000    0.00001635
     atom   28 type  1   force =     0.00000000   -0.00001635    0.00001635
     atom   29 type  1   force =     0.00000000    0.00000000    0.00000000
     atom   30 type  1   force =    -0.00001635   -0.00001635    0.00000000
     atom   31 type  1   force =    -0.00001635    0.00000000   -0.00001635
     atom   32 type  1   force =     0.00000000   -0.00001635   -0.00001635

     Total force =     0.000087     Total SCF correction =     0.000576
     SCF correction compared to forces is large: reduce conv_thr to get better values


     Computing stress (Cartesian axis) and pressure

          total   stress  (Ry/bohr**3)                   (kbar)     P=        0.14
   0.00000092   0.00000000   0.00000000            0.14        0.00        0.00
   0.00000000   0.00000092   0.00000000            0.00        0.14        0.00
   0.00000000   0.00000000   0.00000092            0.00        0.00        0.14


     Writing output data file /scratch/pdrelax.save/
 
     init_run     :     21.33s CPU     21.95s WALL (       2 calls)
     electrons    :   1538.87s CPU   1558.39s WALL (       3 calls)
     update_pot   :      0.41s CPU      0.42s WALL (       1 calls)
     forces       :     18.28s CPU     18.49s WALL (       3 calls)
     stress       :    120.09s CPU    121.02s WALL (       3 calls)

     Called by init_run:
     wfcinit      :     19.91s CPU     20.38s WALL (       2 calls)
     potinit      :      0.37s CPU      0.39s WALL (       2 calls)
     hinit0       :      0.39s CPU      0.39s WALL (       2 calls)

     Called by electrons:
     c_bands      :   1359.09s CPU   1374.55s WALL (      44 calls)
     sum_band     :    174.27s CPU    177.52s WALL (      44 calls)
     v_of_rho     :      0.65s CPU      0.70s WALL (      46 calls)
     newd         :      1.12s CPU      1.55s WALL (      46 calls)
     PAW_pot      :      3.80s CPU      4.03s WALL (      47 calls)
     mix_rho      :      0.19s CPU      0.22s WALL (      44 calls)

     Called by c_bands:
     init_us_2    :      6.61s CPU      6.72s WALL (    3395 calls)
     cegterg      :   1332.94s CPU   1347.62s WALL (    1540 calls)

     Called by *egterg:
     cdiaghg      :    148.88s CPU    149.96s WALL (    4990 calls)
     h_psi        :    722.03s CPU    732.78s WALL (    5130 calls)
     s_psi        :     60.50s CPU     60.92s WALL (    5130 calls)
     g_psi        :      1.69s CPU      1.72s WALL (    3520 calls)

     Called by h_psi:
     h_psi:calbec :    109.23s CPU    109.98s WALL (    5130 calls)
     vloc_psi     :    550.87s CPU    559.83s WALL (    5130 calls)
     add_vuspsi   :     57.50s CPU     58.46s WALL (    5130 calls)

     General routines
     calbec       :    219.14s CPU    220.61s WALL (    7230 calls)
     fft          :      0.69s CPU      0.74s WALL (     669 calls)
     ffts         :      0.05s CPU      0.06s WALL (      90 calls)
     fftw         :    642.37s CPU    652.69s WALL ( 3063060 calls)
     interpolate  :      0.09s CPU      0.11s WALL (      46 calls)
 
     Parallel routines
     fft_scatt_xy :     52.97s CPU     53.83s WALL ( 3063819 calls)
     fft_scatt_yz :    498.95s CPU    507.09s WALL ( 3063819 calls)
 
     PWSCF        :  28m30.48s CPU  28m54.05s WALL

 
   This run was terminated on:  10:49: 0  14Mar2022            

=------------------------------------------------------------------------------=
   JOB DONE.
=------------------------------------------------------------------------------=
