
     Program PWSCF v.6.7MaX starts on  7Mar2022 at  8:20: 3 

     This program is part of the open-source Quantum ESPRESSO suite
     for quantum simulation of materials; please cite
         "P. Giannozzi et al., J. Phys.:Condens. Matter 21 395502 (2009);
         "P. Giannozzi et al., J. Phys.:Condens. Matter 29 465901 (2017);
          URL http://www.quantum-espresso.org", 
     in publications or presentations arising from this work. More details at
     http://www.quantum-espresso.org/quote

     Parallel version (MPI & OpenMP), running on      72 processor cores
     Number of MPI processes:                72
     Threads/MPI process:                     1

     MPI processes distributed on     1 nodes
     R & G space division:  proc/nbgrp/npool/nimage =      72
     Reading input from relaxed.in

     Current dimensions of program PWSCF are:
     Max number of different atomic species (ntypx) = 10
     Max number of k-points (npk) =  40000
     Max angular momentum in pseudopotentials (lmaxx) =  3
     file Ru.pbe-spn-kjpaw_psl.1.0.0.UPF: wavefunction(s)  4D renormalized

     Subspace diagonalization in iterative solution of the eigenvalue problem:
     one sub-group per band group will be used
     ELPA distributed-memory algorithm (size of sub-group:  8*  8 procs)

     Found symmetry operation: I + (  0.2500  0.2500  0.0000)
     This is a supercell, fractional translations are disabled
     Message from routine setup:
     using ibrav=0 with symmetry is DISCOURAGED, use correct ibrav instead
 
     Parallelization info
     --------------------
     sticks:   dense  smooth     PW     G-vecs:    dense   smooth      PW
     Min          98      65     17                 6240     3351     475
     Max          99      66     18                 6245     3355     482
     Sum        7113    4693   1281               449479   241377   34457
 


     bravais-lattice index     =            0
     lattice parameter (alat)  =      14.4000  a.u.
     unit-cell volume          =    2985.9840 (a.u.)^3
     number of atoms/cell      =           32
     number of atomic types    =            1
     number of electrons       =       512.00
     number of Kohn-Sham states=          307
     kinetic-energy cutoff     =      71.0000  Ry
     charge density cutoff     =     430.0000  Ry
     scf convergence threshold =      1.0E-08
     mixing beta               =       0.3000
     number of iterations used =           10  plain     mixing
     energy convergence thresh.=      1.0E-04
     force convergence thresh. =      1.0E-03
     press convergence thresh. =      5.0E-01
     Exchange-correlation= SLA  PW   PBX  PBC
                           (   1   4   3   4   0   0   0)
     nstep                     =           60


     celldm(1)=  14.400000  celldm(2)=   0.000000  celldm(3)=   0.000000
     celldm(4)=   0.000000  celldm(5)=   0.000000  celldm(6)=   0.000000

     crystal axes: (cart. coord. in units of alat)
               a(1) = (   1.000000   0.000000   0.000000 )  
               a(2) = (   0.000000   1.000000   0.000000 )  
               a(3) = (   0.000000   0.000000   1.000000 )  

     reciprocal axes: (cart. coord. in units 2 pi/alat)
               b(1) = (  1.000000  0.000000  0.000000 )  
               b(2) = (  0.000000  1.000000  0.000000 )  
               b(3) = (  0.000000  0.000000  1.000000 )  


     PseudoPot. # 1 for Ru read from file:
     /rds/homes/b/bxp912/pp/Ru.pbe-spn-kjpaw_psl.1.0.0.UPF
     MD5 check sum: 0ae1f594dea09af7be8575c3a481d1ae
     Pseudo is Projector augmented-wave + core cor, Zval = 16.0
     Generated using "atomic" code by A. Dal Corso  v.5.1
     Shape of augmentation charge: PSQ
     Using radial grid of 1233 points,  6 beta functions with: 
                l(1) =   0
                l(2) =   0
                l(3) =   1
                l(4) =   1
                l(5) =   2
                l(6) =   2
     Q(r) pseudized with 0 coefficients 


     atomic species   valence    mass     pseudopotential
        Ru            16.00   101.07000     Ru( 1.00)

     48 Sym. Ops., with inversion, found



   Cartesian axes

     site n.     atom                  positions (alat units)
         1           Ru  tau(   1) = (   0.0000000   0.0000000   0.0000000  )
         2           Ru  tau(   2) = (   0.2500000   0.2500000   0.0000000  )
         3           Ru  tau(   3) = (   0.2500000   0.0000000   0.2500000  )
         4           Ru  tau(   4) = (   0.0000000   0.2500000   0.2500000  )
         5           Ru  tau(   5) = (   0.0000000   0.0000000   0.5000000  )
         6           Ru  tau(   6) = (   0.2500000   0.2500000   0.5000000  )
         7           Ru  tau(   7) = (   0.2500000   0.0000000   0.7500000  )
         8           Ru  tau(   8) = (   0.0000000   0.2500000   0.7500000  )
         9           Ru  tau(   9) = (   0.0000000   0.5000000   0.0000000  )
        10           Ru  tau(  10) = (   0.2500000   0.7500000   0.0000000  )
        11           Ru  tau(  11) = (   0.2500000   0.5000000   0.2500000  )
        12           Ru  tau(  12) = (   0.0000000   0.7500000   0.2500000  )
        13           Ru  tau(  13) = (   0.0000000   0.5000000   0.5000000  )
        14           Ru  tau(  14) = (   0.2500000   0.7500000   0.5000000  )
        15           Ru  tau(  15) = (   0.2500000   0.5000000   0.7500000  )
        16           Ru  tau(  16) = (   0.0000000   0.7500000   0.7500000  )
        17           Ru  tau(  17) = (   0.5000000   0.0000000   0.0000000  )
        18           Ru  tau(  18) = (   0.7500000   0.2500000   0.0000000  )
        19           Ru  tau(  19) = (   0.7500000   0.0000000   0.2500000  )
        20           Ru  tau(  20) = (   0.5000000   0.2500000   0.2500000  )
        21           Ru  tau(  21) = (   0.5000000   0.0000000   0.5000000  )
        22           Ru  tau(  22) = (   0.7500000   0.2500000   0.5000000  )
        23           Ru  tau(  23) = (   0.7500000   0.0000000   0.7500000  )
        24           Ru  tau(  24) = (   0.5000000   0.2500000   0.7500000  )
        25           Ru  tau(  25) = (   0.5000000   0.5000000   0.0000000  )
        26           Ru  tau(  26) = (   0.7500000   0.7500000   0.0000000  )
        27           Ru  tau(  27) = (   0.7500000   0.5000000   0.2500000  )
        28           Ru  tau(  28) = (   0.5000000   0.7500000   0.2500000  )
        29           Ru  tau(  29) = (   0.5000000   0.5000000   0.5000000  )
        30           Ru  tau(  30) = (   0.7500000   0.7500000   0.5000000  )
        31           Ru  tau(  31) = (   0.7500000   0.5000000   0.7500000  )
        32           Ru  tau(  32) = (   0.5000000   0.7500000   0.7500000  )

     number of k points=    35  Marzari-Vanderbilt smearing, width (Ry)=  0.0400
                       cart. coord. in units 2pi/alat
        k(    1) = (   0.0555556   0.0555556   0.0555556), wk =   0.0219479
        k(    2) = (   0.0555556   0.0555556   0.1666667), wk =   0.0658436
        k(    3) = (   0.0555556   0.0555556   0.2777778), wk =   0.0658436
        k(    4) = (   0.0555556   0.0555556   0.3888889), wk =   0.0658436
        k(    5) = (   0.0555556   0.0555556  -0.5000000), wk =   0.0329218
        k(    6) = (   0.0555556   0.1666667   0.1666667), wk =   0.0658436
        k(    7) = (   0.0555556   0.1666667   0.2777778), wk =   0.1316872
        k(    8) = (   0.0555556   0.1666667   0.3888889), wk =   0.1316872
        k(    9) = (   0.0555556   0.1666667  -0.5000000), wk =   0.0658436
        k(   10) = (   0.0555556   0.2777778   0.2777778), wk =   0.0658436
        k(   11) = (   0.0555556   0.2777778   0.3888889), wk =   0.1316872
        k(   12) = (   0.0555556   0.2777778  -0.5000000), wk =   0.0658436
        k(   13) = (   0.0555556   0.3888889   0.3888889), wk =   0.0658436
        k(   14) = (   0.0555556   0.3888889  -0.5000000), wk =   0.0658436
        k(   15) = (   0.0555556  -0.5000000  -0.5000000), wk =   0.0164609
        k(   16) = (   0.1666667   0.1666667   0.1666667), wk =   0.0219479
        k(   17) = (   0.1666667   0.1666667   0.2777778), wk =   0.0658436
        k(   18) = (   0.1666667   0.1666667   0.3888889), wk =   0.0658436
        k(   19) = (   0.1666667   0.1666667  -0.5000000), wk =   0.0329218
        k(   20) = (   0.1666667   0.2777778   0.2777778), wk =   0.0658436
        k(   21) = (   0.1666667   0.2777778   0.3888889), wk =   0.1316872
        k(   22) = (   0.1666667   0.2777778  -0.5000000), wk =   0.0658436
        k(   23) = (   0.1666667   0.3888889   0.3888889), wk =   0.0658436
        k(   24) = (   0.1666667   0.3888889  -0.5000000), wk =   0.0658436
        k(   25) = (   0.1666667  -0.5000000  -0.5000000), wk =   0.0164609
        k(   26) = (   0.2777778   0.2777778   0.2777778), wk =   0.0219479
        k(   27) = (   0.2777778   0.2777778   0.3888889), wk =   0.0658436
        k(   28) = (   0.2777778   0.2777778  -0.5000000), wk =   0.0329218
        k(   29) = (   0.2777778   0.3888889   0.3888889), wk =   0.0658436
        k(   30) = (   0.2777778   0.3888889  -0.5000000), wk =   0.0658436
        k(   31) = (   0.2777778  -0.5000000  -0.5000000), wk =   0.0164609
        k(   32) = (   0.3888889   0.3888889   0.3888889), wk =   0.0219479
        k(   33) = (   0.3888889   0.3888889  -0.5000000), wk =   0.0329218
        k(   34) = (   0.3888889  -0.5000000  -0.5000000), wk =   0.0164609
        k(   35) = (  -0.5000000  -0.5000000  -0.5000000), wk =   0.0027435

     Dense  grid:   449479 G-vectors     FFT dimensions: (  96,  96,  96)

     Smooth grid:   241377 G-vectors     FFT dimensions: (  80,  80,  80)

     Estimated max dynamical RAM per process >     108.57 MB

     Estimated total dynamical RAM >       7.63 GB

     Check: negative core charge=   -0.000002

     Initial potential from superposition of free atoms

     starting charge  511.97959, renormalised to  512.00000
     Starting wfcs are  320 randomized atomic wfcs
     Checking if some PAW data can be deallocated... 

     total cpu time spent up to now is       12.8 secs

     Self-consistent Calculation

     iteration #  1     ecut=    71.00 Ry     beta= 0.30
     Davidson diagonalization with overlap
     ethr =  1.00E-02,  avg # of iterations =  3.4

     Threshold (ethr) on eigenvalues was too large:
     Diagonalizing with lowered threshold

     Davidson diagonalization with overlap
     ethr =  8.35E-05,  avg # of iterations =  5.4

     total cpu time spent up to now is       79.4 secs

     total energy              =  -13813.25355714 Ry
     estimated scf accuracy    <       0.63782328 Ry

     iteration #  2     ecut=    71.00 Ry     beta= 0.30
     Davidson diagonalization with overlap
     ethr =  1.25E-04,  avg # of iterations =  2.0

     total cpu time spent up to now is      110.0 secs

     total energy              =  -13813.28294221 Ry
     estimated scf accuracy    <       0.07749543 Ry

     iteration #  3     ecut=    71.00 Ry     beta= 0.30
     Davidson diagonalization with overlap
     ethr =  1.51E-05,  avg # of iterations =  3.4

     total cpu time spent up to now is      143.1 secs

     total energy              =  -13813.29674322 Ry
     estimated scf accuracy    <       0.05347011 Ry

     iteration #  4     ecut=    71.00 Ry     beta= 0.30
     Davidson diagonalization with overlap
     ethr =  1.04E-05,  avg # of iterations =  1.3

     total cpu time spent up to now is      167.4 secs

     total energy              =  -13813.29995819 Ry
     estimated scf accuracy    <       0.00534260 Ry

     iteration #  5     ecut=    71.00 Ry     beta= 0.30
     Davidson diagonalization with overlap
     ethr =  1.04E-06,  avg # of iterations =  2.5

     total cpu time spent up to now is      197.7 secs

     total energy              =  -13813.29880703 Ry
     estimated scf accuracy    <       0.04811867 Ry

     iteration #  6     ecut=    71.00 Ry     beta= 0.30
     Davidson diagonalization with overlap
     ethr =  1.04E-06,  avg # of iterations =  2.1

     total cpu time spent up to now is      228.2 secs

     total energy              =  -13813.30070287 Ry
     estimated scf accuracy    <       0.01056658 Ry

     iteration #  7     ecut=    71.00 Ry     beta= 0.30
     Davidson diagonalization with overlap
     ethr =  1.04E-06,  avg # of iterations =  1.0

     total cpu time spent up to now is      252.1 secs

     total energy              =  -13813.30078180 Ry
     estimated scf accuracy    <       0.00098803 Ry

     iteration #  8     ecut=    71.00 Ry     beta= 0.30
     Davidson diagonalization with overlap
     ethr =  1.93E-07,  avg # of iterations =  2.0

     total cpu time spent up to now is      282.8 secs

     total energy              =  -13813.30088588 Ry
     estimated scf accuracy    <       0.00013410 Ry

     iteration #  9     ecut=    71.00 Ry     beta= 0.30
     Davidson diagonalization with overlap
     ethr =  2.62E-08,  avg # of iterations =  1.9

     total cpu time spent up to now is      308.8 secs

     total energy              =  -13813.30088338 Ry
     estimated scf accuracy    <       0.00003108 Ry

     iteration # 10     ecut=    71.00 Ry     beta= 0.30
     Davidson diagonalization with overlap
     ethr =  6.07E-09,  avg # of iterations =  2.5

     total cpu time spent up to now is      338.3 secs

     total energy              =  -13813.30088411 Ry
     estimated scf accuracy    <       0.00001325 Ry

     iteration # 11     ecut=    71.00 Ry     beta= 0.30
     Davidson diagonalization with overlap
     ethr =  2.59E-09,  avg # of iterations =  2.1

     total cpu time spent up to now is      365.0 secs

     total energy              =  -13813.30088495 Ry
     estimated scf accuracy    <       0.00000218 Ry

     iteration # 12     ecut=    71.00 Ry     beta= 0.30
     Davidson diagonalization with overlap
     ethr =  4.27E-10,  avg # of iterations =  3.3

     total cpu time spent up to now is      395.6 secs

     total energy              =  -13813.30088528 Ry
     estimated scf accuracy    <       0.00000005 Ry

     iteration # 13     ecut=    71.00 Ry     beta= 0.30
     Davidson diagonalization with overlap
     ethr =  1.05E-11,  avg # of iterations =  4.3

     total cpu time spent up to now is      434.4 secs

     total energy              =  -13813.30088532 Ry
     estimated scf accuracy    <       0.00000003 Ry

     iteration # 14     ecut=    71.00 Ry     beta= 0.30
     Davidson diagonalization with overlap
     ethr =  5.64E-12,  avg # of iterations =  2.0

     total cpu time spent up to now is      466.5 secs

     End of self-consistent calculation

          k = 0.0556 0.0556 0.0556 ( 30224 PWs)   bands (ev):

   -49.9034 -49.8035 -49.8035 -49.8035 -49.7842 -49.7842 -49.7842 -49.7482
   -49.7482 -49.7482 -49.7388 -49.7376 -49.7376 -49.7376 -49.7376 -49.7376
   -49.7376 -49.7371 -49.7371 -49.7371 -49.7288 -49.7288 -49.7288 -49.6833
   -49.6833 -49.6833 -49.6828 -49.6828 -49.6828 -49.6828 -49.6828 -49.6828
   -20.3085 -20.3085 -20.3085 -20.3043 -20.2457 -20.2457 -20.2457 -20.0452
   -20.0452 -20.0452 -20.0338 -20.0338 -20.0338 -20.0338 -20.0338 -20.0338
   -20.0136 -20.0136 -20.0136 -19.9909 -19.9909 -19.9909 -19.9909 -19.9909
   -19.9909 -19.9402 -19.9402 -19.9402 -19.9402 -19.9402 -19.9402 -19.8408
   -19.8408 -19.8408 -19.7676 -19.7676 -19.7676 -19.7598 -19.7598 -19.7598
   -19.7260 -19.7260 -19.7260 -19.7260 -19.7260 -19.7260 -19.6858 -19.6858
   -19.6858 -19.6789 -19.6789 -19.6789 -19.6789 -19.6789 -19.6789 -19.6731
   -19.6731 -19.6731 -19.6686 -19.6686 -19.6686 -19.5059 -19.5059 -19.5059
   -19.5053 -19.5053 -19.5053 -19.4736 -19.4736 -19.4736 -19.4735 -19.4735
   -19.4735 -19.4586 -19.4586 -19.4586 -19.4463 -19.4463 -19.4463 -19.4453
   -19.4453 -19.4453 -19.4453 -19.4453 -19.4453 -19.4433 -19.4433 -19.4433
   -19.4404 -19.4404 -19.4268 -19.4268 -19.4268 -19.3138 -19.3069 -19.3069
    15.3475  16.9041  16.9041  16.9041  17.1843  17.2020  17.2021  17.2021
    17.3726  17.3726  17.3726  17.6016  17.6016  17.6016  17.7728  17.7728
    17.7728  18.3135  18.3135  18.3135  18.3135  18.3135  18.3135  18.6291
    18.6291  18.6291  18.8964  18.8964  18.8964  18.9023  18.9023  18.9023
    19.0018  19.0018  19.0018  19.0056  19.0056  19.0056  19.0056  19.0056
    19.0056  19.4960  19.4960  19.4960  19.4960  19.4960  19.4960  19.6403
    19.6403  19.6403  19.6721  19.6722  19.6722  19.6722  19.6722  19.6722
    19.7365  19.7365  19.7365  19.9999  20.0000  20.0000  20.0010  20.0010
    20.0010  20.0010  20.0010  20.0010  20.0015  20.0015  20.0015  20.0015
    20.0015  20.0015  20.1709  20.1709  20.1709  20.4551  20.4551  20.4551
    20.4913  20.4913  20.5064  20.5064  20.5064  20.5852  20.6166  20.6166
    21.5931  21.5931  21.5931  21.7637  21.7637  21.7637  21.8112  21.8112
    21.8112  21.9114  21.9114  21.9114  21.9114  21.9114  21.9114  21.9253
    21.9253  21.9253  22.2224  22.2224  22.2224  22.3424  22.3424  22.3424
    22.5913  22.5913  22.5913  22.6687  22.6687  22.6687  22.6687  22.6687
    22.6687  22.6873  22.6873  22.6873  22.7275  22.7275  22.7275  22.9173
    22.9173  22.9173  22.9173  22.9173  22.9173  22.9767  22.9767  23.0906
    23.0906  23.0906  23.7522  23.7522  23.7522  23.7986  23.7986  23.7986
    23.9124  23.9124  23.9124  23.9991  24.7320  24.7320  24.7320  24.7742
    24.7742  24.8093  24.8093  24.8093  25.0930  25.0930  25.0930  25.1174
    25.1174  25.1174  25.2795  25.2795  25.2795  25.2795  25.2795  25.2795
    25.2845  25.2845  25.2845  26.7281  26.7281  26.7281  26.8922  26.8922
    26.8922  27.2619  27.2619

          k = 0.0556 0.0556 0.1667 ( 30207 PWs)   bands (ev):

   -49.9001 -49.8224 -49.8016 -49.8016 -49.7826 -49.7826 -49.7652 -49.7586
   -49.7586 -49.7479 -49.7464 -49.7464 -49.7405 -49.7376 -49.7376 -49.7371
   -49.7371 -49.7354 -49.7291 -49.7273 -49.7273 -49.7201 -49.7201 -49.6867
   -49.6847 -49.6847 -49.6844 -49.6844 -49.6833 -49.6833 -49.6829 -49.6829
   -20.3010 -20.2971 -20.2971 -20.2890 -20.2374 -20.2373 -20.2327 -20.0762
   -20.0628 -20.0628 -20.0497 -20.0497 -20.0471 -20.0471 -20.0417 -20.0394
   -20.0394 -20.0161 -20.0161 -20.0012 -20.0012 -19.9878 -19.9878 -19.9869
   -19.9869 -19.9485 -19.9485 -19.9312 -19.9312 -19.9194 -19.8912 -19.8912
   -19.8534 -19.8534 -19.8084 -19.8084 -19.7763 -19.7763 -19.7655 -19.7655
   -19.7346 -19.6968 -19.6968 -19.6848 -19.6848 -19.6837 -19.6837 -19.6789
   -19.6781 -19.6781 -19.6679 -19.6679 -19.6676 -19.6643 -19.6643 -19.6632
   -19.6627 -19.6627 -19.6590 -19.6461 -19.6461 -19.5377 -19.5363 -19.5130
   -19.5130 -19.4975 -19.4975 -19.4807 -19.4807 -19.4783 -19.4783 -19.4699
   -19.4699 -19.4641 -19.4641 -19.4638 -19.4581 -19.4571 -19.4571 -19.4464
   -19.4460 -19.4452 -19.4452 -19.4442 -19.4442 -19.4424 -19.4415 -19.4384
   -19.4384 -19.4377 -19.4272 -19.4150 -19.4150 -19.3312 -19.3125 -19.3104
    15.4338  16.9550  16.9679  16.9679  17.2241  17.2593  17.2593  17.2767
    17.2998  17.4106  17.4346  17.4346  17.6638  17.6638  17.7944  17.8383
    17.8383  18.1927  18.1927  18.3619  18.3619  18.3714  18.3714  18.3716
    18.5826  18.6684  18.6684  18.6879  18.6879  18.7378  18.7595  18.7595
    18.9353  18.9353  18.9453  18.9453  18.9674  18.9674  19.0413  19.0413
    19.1004  19.1004  19.1844  19.4744  19.4744  19.4999  19.4999  19.5514
    19.5514  19.5655  19.5655  19.6242  19.6242  19.7131  19.7131  19.7442
    19.8215  19.8215  19.8403  19.8403  19.9362  19.9537  19.9537  19.9868
    19.9868  19.9998  19.9998  20.0084  20.0084  20.2520  20.2520  20.2734
    20.2734  20.2980  20.3520  20.3816  20.4131  20.4131  20.4882  20.5241
    20.5248  20.5513  20.5513  20.5590  20.5590  20.5697  20.6596  20.6635
    21.3615  21.3615  21.4920  21.4920  21.5816  21.6091  21.7193  21.7193
    21.7492  21.8453  21.8453  21.8822  22.0231  22.0231  22.0269  22.0565
    22.0565  22.1033  22.1033  22.1330  22.1986  22.1986  22.5246  22.5246
    22.5427  22.5427  22.5577  22.5577  22.6704  22.6704  22.6850  22.6850
    22.8054  22.8054  22.8285  22.8285  22.9051  22.9263  22.9362  22.9362
    22.9816  23.0011  23.1412  23.1412  23.1571  23.2048  23.2048  23.2906
    23.3238  23.3238  23.3341  23.3854  23.3854  23.5732  23.5986  23.8146
    23.8146  24.0056  24.0056  24.0752  24.5313  24.5313  24.6435  24.6435
    24.6577  24.6916  24.7563  24.7563  24.7607  24.9566  25.0269  25.1516
    25.1516  25.1529  25.1529  25.1739  25.2781  25.2781  25.2793  25.2793
    25.4600  25.4600  25.6864  26.2090  26.2090  26.5903  26.6694  26.7353
    26.7353  27.2060  27.2060

          k = 0.0556 0.0556 0.2778 ( 30183 PWs)   bands (ev):

   -49.8935 -49.8404 -49.7980 -49.7980 -49.7796 -49.7796 -49.7685 -49.7685
   -49.7547 -49.7547 -49.7472 -49.7470 -49.7421 -49.7376 -49.7375 -49.7372
   -49.7372 -49.7339 -49.7295 -49.7174 -49.7174 -49.7118 -49.7118 -49.6933
   -49.6882 -49.6882 -49.6873 -49.6873 -49.6832 -49.6832 -49.6829 -49.6829
   -20.2824 -20.2749 -20.2749 -20.2630 -20.2209 -20.2209 -20.2070 -20.1220
   -20.1072 -20.1072 -20.0861 -20.0856 -20.0856 -20.0531 -20.0530 -20.0472
   -20.0472 -20.0165 -20.0165 -19.9935 -19.9928 -19.9928 -19.9908 -19.9908
   -19.9547 -19.9547 -19.9511 -19.9511 -19.9156 -19.9156 -19.8759 -19.8759
   -19.8470 -19.8470 -19.8438 -19.8438 -19.8050 -19.8050 -19.8031 -19.8031
   -19.7019 -19.7019 -19.6847 -19.6767 -19.6767 -19.6688 -19.6688 -19.6567
   -19.6526 -19.6516 -19.6516 -19.6453 -19.6453 -19.6383 -19.6383 -19.6350
   -19.6350 -19.6174 -19.6080 -19.6080 -19.6005 -19.5679 -19.5659 -19.5277
   -19.5277 -19.5036 -19.5036 -19.4997 -19.4997 -19.4947 -19.4947 -19.4924
   -19.4839 -19.4839 -19.4798 -19.4798 -19.4637 -19.4570 -19.4493 -19.4493
   -19.4487 -19.4451 -19.4451 -19.4444 -19.4444 -19.4381 -19.4381 -19.4352
   -19.4281 -19.4124 -19.4109 -19.4103 -19.4103 -19.3620 -19.3235 -19.3207
    15.6037  16.9243  17.0536  17.0923  17.0923  17.3212  17.3730  17.3730
    17.4069  17.4863  17.5582  17.5582  17.6993  17.7841  17.7841  17.9654
    17.9654  17.9860  17.9860  18.1356  18.2456  18.3455  18.3455  18.4126
    18.4539  18.4539  18.4850  18.4850  18.5845  18.5845  18.6367  18.6367
    18.7460  18.7460  18.8014  18.8014  18.9150  18.9150  18.9994  18.9994
    19.1726  19.1726  19.3762  19.3762  19.4393  19.4393  19.4415  19.4415
    19.4571  19.4571  19.4671  19.5024  19.5024  19.5979  19.5979  19.7570
    19.7570  19.8086  19.8740  19.8740  19.9374  19.9374  20.0026  20.0026
    20.0187  20.0187  20.0810  20.0810  20.1077  20.2779  20.3407  20.3407
    20.3488  20.3488  20.3978  20.4494  20.6065  20.6569  20.6569  20.6783
    20.6799  20.6943  20.6943  20.7536  20.7570  20.8008  21.0837  21.0837
    21.1447  21.1447  21.1474  21.1474  21.3575  21.4705  21.4705  21.5053
    21.5176  21.5760  21.9349  21.9755  21.9755  22.1853  22.1853  22.2032
    22.2032  22.2409  22.2409  22.3180  22.3180  22.4384  22.4384  22.5382
    22.5382  22.6584  22.6630  22.6630  22.6754  22.6754  22.7008  22.7008
    22.7555  22.7555  22.7673  22.8261  22.8564  22.8564  22.9725  23.0421
    23.0422  23.0496  23.1091  23.1091  23.2486  23.3831  23.4524  23.4524
    23.4554  23.5359  23.5359  23.5793  23.6093  23.6093  23.6299  23.8477
    23.8477  23.9925  23.9925  24.2370  24.2600  24.2600  24.4362  24.4362
    24.4675  24.6020  24.6020  24.6030  24.6325  24.6935  24.9184  24.9184
    24.9196  24.9196  24.9758  25.2773  25.2773  25.2788  25.2789  25.4231
    25.6996  25.6996  25.8949  25.8949  26.0628  26.2061  26.2061  26.2443
    26.5495  27.0892  27.0892

          k = 0.0556 0.0556 0.3889 ( 30161 PWs)   bands (ev):

   -49.8840 -49.8570 -49.7927 -49.7927 -49.7777 -49.7777 -49.7751 -49.7751
   -49.7625 -49.7625 -49.7463 -49.7437 -49.7375 -49.7374 -49.7373 -49.7373
   -49.7325 -49.7303 -49.7303 -49.7083 -49.7083 -49.7041 -49.7041 -49.7030
   -49.6935 -49.6935 -49.6917 -49.6917 -49.6832 -49.6832 -49.6830 -49.6830
   -20.2535 -20.2428 -20.2428 -20.2275 -20.1967 -20.1967 -20.1705 -20.1690
   -20.1559 -20.1559 -20.1358 -20.1281 -20.1281 -20.0609 -20.0520 -20.0520
   -20.0383 -20.0383 -20.0320 -20.0319 -20.0062 -20.0062 -19.9652 -19.9652
   -19.9370 -19.9370 -19.9184 -19.9184 -19.9042 -19.9042 -19.8946 -19.8946
   -19.8821 -19.8821 -19.8408 -19.8408 -19.8378 -19.8378 -19.7998 -19.7998
   -19.7278 -19.7278 -19.6748 -19.6748 -19.6705 -19.6705 -19.6408 -19.6370
   -19.6302 -19.6088 -19.6088 -19.6054 -19.6054 -19.6019 -19.6019 -19.6018
   -19.6018 -19.5957 -19.5931 -19.5728 -19.5728 -19.5716 -19.5490 -19.5490
   -19.5337 -19.5337 -19.5335 -19.5335 -19.5310 -19.5272 -19.5153 -19.5153
   -19.5129 -19.5129 -19.4915 -19.4685 -19.4685 -19.4555 -19.4512 -19.4449
   -19.4449 -19.4446 -19.4446 -19.4437 -19.4437 -19.4336 -19.4336 -19.4329
   -19.4293 -19.4123 -19.4123 -19.4060 -19.3847 -19.3827 -19.3396 -19.3368
    15.8513  16.5328  17.1930  17.2709  17.2709  17.4746  17.5404  17.5416
    17.5416  17.5902  17.5985  17.7398  17.7398  17.7423  17.7423  17.9258
    17.9412  17.9538  17.9538  18.0328  18.0328  18.1005  18.1457  18.1457
    18.2839  18.2839  18.3771  18.3771  18.5787  18.5787  18.5943  18.5943
    18.6497  18.6497  18.8340  18.8340  18.8601  18.8601  19.0797  19.0797
    19.0910  19.0910  19.1839  19.1839  19.3308  19.3308  19.3731  19.3731
    19.4153  19.4153  19.4808  19.4808  19.4891  19.4891  19.7393  19.7393
    19.7409  19.7925  19.7925  19.9074  20.0215  20.0215  20.0274  20.0274
    20.0343  20.0343  20.1553  20.2080  20.2178  20.2458  20.2458  20.2581
    20.2581  20.3830  20.4540  20.4540  20.7346  20.7993  20.7993  20.8098
    20.8098  20.8266  20.8266  20.8344  20.8939  20.8964  21.1168  21.1299
    21.1299  21.1953  21.2566  21.2874  21.2940  21.2940  21.2974  21.3078
    21.7774  21.7774  22.1006  22.1006  22.1087  22.1722  22.1722  22.3040
    22.3040  22.3087  22.3597  22.3725  22.3725  22.4169  22.4169  22.4528
    22.4528  22.5027  22.5027  22.5141  22.5141  22.5744  22.6285  22.6285
    22.6676  22.6676  22.6902  22.6902  22.7789  22.7789  22.9992  22.9992
    23.1210  23.1388  23.1388  23.2557  23.3261  23.4563  23.4563  23.5880
    23.7806  23.7812  23.7812  23.8871  23.8937  23.8937  23.9330  23.9330
    24.1563  24.1563  24.1574  24.2155  24.3124  24.3124  24.3157  24.3759
    24.3759  24.3959  24.4341  24.4352  24.6109  24.6109  24.6147  24.6147
    24.6680  24.6680  24.7472  25.2030  25.2030  25.2773  25.2773  25.2783
    25.2783  25.4173  25.6762  25.6762  25.7956  26.3009  26.3009  26.3649
    26.7357  26.9034  26.9034

          k = 0.0556 0.0556-0.5000 ( 30178 PWs)   bands (ev):

   -49.8717 -49.8717 -49.7858 -49.7858 -49.7858 -49.7858 -49.7693 -49.7693
   -49.7693 -49.7693 -49.7451 -49.7451 -49.7374 -49.7374 -49.7374 -49.7374
   -49.7313 -49.7313 -49.7154 -49.7154 -49.7002 -49.7002 -49.7002 -49.7002
   -49.6974 -49.6974 -49.6974 -49.6974 -49.6831 -49.6831 -49.6831 -49.6831
   -20.2154 -20.2154 -20.2023 -20.2023 -20.2023 -20.2023 -20.1842 -20.1842
   -20.1654 -20.1654 -20.1654 -20.1654 -20.1199 -20.1199 -20.0445 -20.0445
   -20.0445 -20.0445 -20.0239 -20.0239 -20.0239 -20.0239 -19.9350 -19.9350
   -19.9350 -19.9350 -19.9127 -19.9127 -19.9127 -19.9127 -19.8796 -19.8796
   -19.8796 -19.8796 -19.8685 -19.8685 -19.8685 -19.8685 -19.7608 -19.7608
   -19.7608 -19.7608 -19.6726 -19.6726 -19.6726 -19.6726 -19.6202 -19.6202
   -19.6170 -19.6170 -19.5778 -19.5778 -19.5763 -19.5763 -19.5763 -19.5763
   -19.5695 -19.5695 -19.5695 -19.5695 -19.5671 -19.5671 -19.5671 -19.5671
   -19.5544 -19.5544 -19.5544 -19.5544 -19.5416 -19.5416 -19.5416 -19.5416
   -19.5284 -19.5283 -19.4617 -19.4617 -19.4544 -19.4544 -19.4544 -19.4544
   -19.4536 -19.4536 -19.4448 -19.4448 -19.4448 -19.4448 -19.4309 -19.4309
   -19.4205 -19.4205 -19.4205 -19.4205 -19.3602 -19.3602 -19.3577 -19.3577
    16.1664  16.1664  17.3616  17.3616  17.4925  17.4925  17.4925  17.4925
    17.6823  17.6823  17.7458  17.7458  17.7628  17.7628  17.7628  17.7628
    17.8232  17.8232  17.9849  17.9849  17.9849  17.9849  18.1584  18.1584
    18.1584  18.1584  18.3636  18.3636  18.3636  18.3636  18.7155  18.7155
    18.7155  18.7155  18.8565  18.8565  18.8565  18.8565  19.0076  19.0076
    19.0076  19.0076  19.2044  19.2044  19.2044  19.2044  19.4199  19.4199
    19.4199  19.4199  19.4403  19.4403  19.4403  19.4403  19.7453  19.7453
    19.7453  19.7453  19.9950  19.9950  20.0273  20.0273  20.0297  20.0297
    20.0297  20.0297  20.1397  20.1397  20.1397  20.1397  20.2994  20.2994
    20.5076  20.5076  20.5076  20.5076  20.6132  20.6132  20.6132  20.6132
    20.9063  20.9063  20.9811  20.9811  20.9811  20.9811  21.0289  21.0289
    21.0776  21.0776  21.0805  21.0805  21.7567  21.7567  21.7567  21.7567
    21.7628  21.7628  21.7932  21.7932  22.1535  22.1535  22.1535  22.1535
    22.3448  22.3448  22.4445  22.4445  22.4445  22.4445  22.4707  22.4707
    22.4707  22.4707  22.5493  22.5493  22.5493  22.5494  22.5627  22.5627
    22.5627  22.5627  22.6286  22.6286  22.6286  22.6286  22.8813  22.8813
    22.8813  22.8813  23.2138  23.2138  23.8191  23.8191  23.8191  23.8191
    23.8301  23.8301  23.9167  23.9167  24.0962  24.0962  24.0962  24.0962
    24.1481  24.1481  24.1797  24.1797  24.2596  24.2596  24.2596  24.2596
    24.2761  24.2761  24.2761  24.2761  24.5574  24.5574  24.7317  24.7317
    24.7317  24.7317  24.7578  24.7578  25.1559  25.1559  25.1559  25.1559
    25.2777  25.2777  25.2777  25.2777  26.1130  26.1130  26.6410  26.6410
    26.6410  26.6410  27.1324

          k = 0.0556 0.1667 0.1667 ( 30191 PWs)   bands (ev):

   -49.8968 -49.8203 -49.8203 -49.7998 -49.7811 -49.7706 -49.7639 -49.7639
   -49.7580 -49.7580 -49.7461 -49.7461 -49.7438 -49.7388 -49.7344 -49.7344
   -49.7338 -49.7338 -49.7275 -49.7275 -49.7206 -49.7206 -49.7130 -49.6866
   -49.6866 -49.6861 -49.6861 -49.6850 -49.6850 -49.6841 -49.6841 -49.6833
   -20.2937 -20.2937 -20.2822 -20.2699 -20.2291 -20.2250 -20.2250 -20.0826
   -20.0826 -20.0763 -20.0763 -20.0461 -20.0446 -20.0446 -20.0428 -20.0428
   -20.0386 -20.0386 -20.0329 -20.0329 -20.0139 -20.0139 -20.0111 -20.0111
   -19.9515 -19.9282 -19.9282 -19.9243 -19.9243 -19.9063 -19.9063 -19.8835
   -19.8835 -19.8671 -19.8501 -19.7935 -19.7717 -19.7717 -19.7343 -19.7343
   -19.7230 -19.7230 -19.7003 -19.6989 -19.6989 -19.6779 -19.6779 -19.6653
   -19.6653 -19.6623 -19.6623 -19.6605 -19.6605 -19.6605 -19.6594 -19.6594
   -19.6504 -19.6504 -19.6221 -19.6221 -19.6078 -19.5450 -19.5450 -19.5301
   -19.5301 -19.5065 -19.5020 -19.4928 -19.4780 -19.4780 -19.4773 -19.4773
   -19.4713 -19.4700 -19.4693 -19.4693 -19.4675 -19.4675 -19.4554 -19.4518
   -19.4518 -19.4489 -19.4489 -19.4489 -19.4406 -19.4389 -19.4389 -19.4381
   -19.4313 -19.4313 -19.4160 -19.4160 -19.3981 -19.3531 -19.3176 -19.3096
    15.5187  17.0190  17.0190  17.0256  17.2445  17.2970  17.3488  17.3488
    17.3608  17.3608  17.4721  17.4721  17.5005  17.7107  17.8623  17.8623
    17.8848  18.2251  18.2251  18.2526  18.2526  18.4165  18.4165  18.4192
    18.4192  18.4708  18.4708  18.5503  18.6123  18.6123  18.7234  18.7728
    18.7728  18.7940  18.7940  18.8171  18.9815  19.0574  19.0574  19.0641
    19.0641  19.0939  19.0939  19.2104  19.2104  19.4382  19.4382  19.5394
    19.5394  19.5611  19.6162  19.6162  19.6487  19.6487  19.6996  19.6996
    19.7232  19.9098  19.9098  19.9158  19.9158  20.0069  20.0069  20.0751
    20.0751  20.1205  20.1948  20.1948  20.3025  20.3025  20.3207  20.3207
    20.3631  20.3631  20.3954  20.4670  20.4670  20.4752  20.4884  20.5002
    20.5429  20.5429  20.5636  20.6096  20.6415  20.6415  20.6806  20.7056
    21.2254  21.3268  21.3619  21.3619  21.6152  21.6152  21.7798  21.7937
    21.7937  21.7946  21.7946  21.8669  21.8669  21.8867  21.8867  21.9132
    21.9132  22.0697  22.1339  22.2380  22.2380  22.2597  22.2597  22.3105
    22.3890  22.6709  22.6709  22.7879  22.7995  22.7995  22.8154  22.8154
    22.8561  22.8561  22.8835  22.9378  22.9378  22.9810  23.0123  23.0123
    23.0759  23.0759  23.0954  23.1357  23.1357  23.2353  23.3261  23.3862
    23.3862  23.4170  23.4170  23.4975  23.5089  23.5089  23.6367  23.6367
    23.8445  24.0406  24.2097  24.2134  24.2134  24.3523  24.3523  24.5255
    24.6363  24.6363  24.7014  24.7822  24.7822  24.7960  24.8035  25.0480
    25.0480  25.1506  25.1506  25.1543  25.1543  25.1723  25.1723  25.2162
    25.4119  25.7071  26.0449  26.0449  26.1507  26.1507  26.6802  26.6802
    27.1858  27.1858  27.2967

          k = 0.0556 0.1667 0.2778 ( 30157 PWs)   bands (ev):

   -49.8904 -49.8380 -49.8161 -49.7963 -49.7821 -49.7782 -49.7676 -49.7614
   -49.7568 -49.7541 -49.7471 -49.7460 -49.7454 -49.7412 -49.7404 -49.7323
   -49.7307 -49.7280 -49.7229 -49.7217 -49.7179 -49.7126 -49.7063 -49.6931
   -49.6896 -49.6891 -49.6890 -49.6865 -49.6864 -49.6853 -49.6838 -49.6834
   -20.2792 -20.2757 -20.2569 -20.2405 -20.2126 -20.2099 -20.2007 -20.1290
   -20.1201 -20.0866 -20.0854 -20.0821 -20.0820 -20.0785 -20.0575 -20.0537
   -20.0524 -20.0365 -20.0350 -20.0273 -20.0246 -20.0211 -20.0173 -19.9985
   -19.9803 -19.9439 -19.9289 -19.9113 -19.9109 -19.8973 -19.8912 -19.8890
   -19.8689 -19.8627 -19.8367 -19.8237 -19.8071 -19.7709 -19.7594 -19.7330
   -19.7229 -19.7180 -19.6959 -19.6868 -19.6821 -19.6666 -19.6655 -19.6627
   -19.6581 -19.6560 -19.6514 -19.6415 -19.6322 -19.6280 -19.6261 -19.6237
   -19.6236 -19.6195 -19.5870 -19.5846 -19.5755 -19.5712 -19.5611 -19.5601
   -19.5186 -19.5178 -19.5130 -19.5107 -19.5035 -19.5019 -19.5009 -19.4983
   -19.4891 -19.4834 -19.4752 -19.4707 -19.4706 -19.4680 -19.4623 -19.4581
   -19.4569 -19.4547 -19.4516 -19.4479 -19.4399 -19.4392 -19.4334 -19.4185
   -19.4178 -19.4159 -19.4118 -19.4002 -19.3883 -19.3875 -19.3286 -19.3154
    15.6858  16.9876  17.1181  17.1389  17.1440  17.3206  17.3896  17.4744
    17.4792  17.4906  17.5466  17.5945  17.6307  17.7675  17.7996  17.9729
    17.9947  18.0045  18.0443  18.1562  18.1852  18.2795  18.2852  18.3225
    18.3462  18.3706  18.4586  18.4859  18.5059  18.5061  18.5095  18.5319
    18.6597  18.6817  18.6938  18.7982  18.8335  18.9061  18.9144  19.0736
    19.0885  19.1144  19.1509  19.2595  19.2897  19.3525  19.3670  19.3940
    19.4034  19.4592  19.4856  19.5295  19.6108  19.6226  19.6466  19.7190
    19.7432  19.7808  19.8933  20.0113  20.0469  20.0819  20.1061  20.1426
    20.1669  20.1943  20.2249  20.2477  20.3182  20.3321  20.3503  20.3658
    20.3804  20.4654  20.4910  20.5238  20.5381  20.5969  20.6351  20.6367
    20.7023  20.7601  20.7609  20.7688  20.7856  20.7912  21.0163  21.0343
    21.0642  21.1203  21.1344  21.3582  21.3606  21.3703  21.5280  21.5672
    21.6442  21.6590  21.6956  21.8232  21.8592  21.9133  21.9842  22.0787
    22.0992  22.1348  22.1873  22.2319  22.2801  22.2905  22.3881  22.4696
    22.4993  22.5800  22.5857  22.6229  22.6338  22.6572  22.7672  22.7730
    22.7822  22.7936  22.8871  22.9120  22.9772  23.0192  23.0814  23.0955
    23.1132  23.1419  23.1448  23.3290  23.4234  23.4247  23.4450  23.4731
    23.4986  23.6542  23.6741  23.7140  23.7220  23.7260  23.7565  23.7716
    23.7792  23.8593  23.9736  24.0670  24.2260  24.3394  24.4390  24.4627
    24.4766  24.5495  24.5767  24.6885  24.7082  24.7114  24.8583  24.8591
    24.9198  24.9225  24.9855  25.0394  25.1503  25.1558  25.1670  25.1793
    25.2257  25.6045  25.6432  26.0337  26.1530  26.4722  26.5681  26.6548
    26.6707  26.7548  27.6706

          k = 0.0556 0.1667 0.3889 ( 30138 PWs)   bands (ev):

   -49.8809 -49.8544 -49.8099 -49.7927 -49.7911 -49.7766 -49.7738 -49.7616
   -49.7577 -49.7550 -49.7500 -49.7475 -49.7445 -49.7419 -49.7310 -49.7295
   -49.7288 -49.7279 -49.7233 -49.7124 -49.7090 -49.7052 -49.7027 -49.7001
   -49.6952 -49.6947 -49.6933 -49.6900 -49.6862 -49.6856 -49.6837 -49.6834
   -20.2540 -20.2475 -20.2223 -20.2023 -20.1886 -20.1878 -20.1765 -20.1669
   -20.1648 -20.1334 -20.1252 -20.1205 -20.1074 -20.0803 -20.0750 -20.0624
   -20.0618 -20.0595 -20.0557 -20.0455 -20.0223 -20.0083 -20.0065 -19.9874
   -19.9641 -19.9483 -19.9424 -19.9231 -19.9218 -19.8924 -19.8688 -19.8668
   -19.8613 -19.8485 -19.8396 -19.8216 -19.8057 -19.7931 -19.7930 -19.7752
   -19.7509 -19.7216 -19.6652 -19.6635 -19.6601 -19.6559 -19.6542 -19.6501
   -19.6442 -19.6353 -19.6347 -19.6102 -19.6038 -19.6000 -19.5984 -19.5956
   -19.5907 -19.5895 -19.5822 -19.5754 -19.5546 -19.5534 -19.5528 -19.5435
   -19.5397 -19.5383 -19.5373 -19.5373 -19.5368 -19.5310 -19.5309 -19.5045
   -19.5021 -19.4977 -19.4820 -19.4788 -19.4739 -19.4726 -19.4721 -19.4662
   -19.4635 -19.4607 -19.4456 -19.4453 -19.4413 -19.4378 -19.4331 -19.4284
   -19.4206 -19.4146 -19.4011 -19.3905 -19.3859 -19.3720 -19.3448 -19.3284
    15.9294  16.6007  17.2584  17.3039  17.3234  17.4521  17.5362  17.6078
    17.6478  17.6516  17.6570  17.6816  17.7542  17.7766  17.7956  17.8216
    17.8740  17.9211  17.9790  17.9844  18.0856  18.0930  18.1488  18.1840
    18.1898  18.2078  18.3120  18.3606  18.3655  18.3750  18.5427  18.5636
    18.6281  18.6390  18.6710  18.6956  18.7998  18.9983  19.0048  19.0234
    19.0346  19.1320  19.1484  19.1992  19.2097  19.2458  19.2671  19.2772
    19.3157  19.3259  19.4707  19.4714  19.4730  19.5851  19.7415  19.7471
    19.7515  19.8197  20.0184  20.0277  20.0694  20.0963  20.1251  20.1317
    20.1578  20.1948  20.2113  20.2798  20.2848  20.2850  20.3328  20.3552
    20.4579  20.4619  20.4898  20.6856  20.7468  20.7773  20.7989  20.8346
    20.8949  20.9169  20.9220  20.9326  20.9380  20.9412  20.9472  20.9827
    21.0761  21.1629  21.2175  21.2441  21.3031  21.3137  21.4017  21.4305
    21.6463  21.7320  21.7856  21.8569  21.8682  21.9212  22.0281  22.0923
    22.1103  22.1405  22.1810  22.1969  22.2004  22.2028  22.2740  22.3413
    22.4080  22.4637  22.5603  22.5869  22.6074  22.6699  22.6981  22.7176
    22.7332  22.8329  22.8759  22.8878  22.9766  23.0104  23.0193  23.0962
    23.1433  23.1836  23.3265  23.3624  23.4122  23.4133  23.4876  23.5037
    23.6881  23.7163  23.7834  23.8775  23.9996  24.0019  24.0232  24.0314
    24.0541  24.0656  24.0780  24.1705  24.1833  24.2647  24.2673  24.3645
    24.4409  24.5462  24.5521  24.6120  24.6128  24.6132  24.6177  24.6264
    24.7647  24.7689  24.8398  25.0814  25.1489  25.1512  25.1574  25.1623
    25.1626  25.3464  25.6250  25.8581  25.8930  26.0426  26.1980  26.3973
    26.8864  27.2105  27.4952

          k = 0.0556 0.1667-0.5000 ( 30144 PWs)   bands (ev):

   -49.8688 -49.8688 -49.8021 -49.8021 -49.7845 -49.7845 -49.7683 -49.7683
   -49.7530 -49.7530 -49.7527 -49.7527 -49.7433 -49.7433 -49.7298 -49.7298
   -49.7254 -49.7254 -49.7149 -49.7149 -49.7030 -49.7030 -49.7012 -49.7012
   -49.6987 -49.6987 -49.6946 -49.6946 -49.6859 -49.6859 -49.6835 -49.6835
   -20.2191 -20.2191 -20.2105 -20.2105 -20.1803 -20.1803 -20.1593 -20.1593
   -20.1576 -20.1576 -20.1570 -20.1570 -20.1183 -20.1183 -20.0711 -20.0711
   -20.0634 -20.0634 -20.0623 -20.0623 -20.0084 -20.0084 -19.9857 -19.9857
   -19.9548 -19.9548 -19.9473 -19.9473 -19.9019 -19.9019 -19.8683 -19.8683
   -19.8384 -19.8384 -19.8229 -19.8229 -19.8208 -19.8208 -19.7840 -19.7840
   -19.7543 -19.7543 -19.6644 -19.6644 -19.6544 -19.6544 -19.6289 -19.6289
   -19.6145 -19.6145 -19.6106 -19.6106 -19.6040 -19.6040 -19.5843 -19.5843
   -19.5744 -19.5744 -19.5678 -19.5678 -19.5651 -19.5651 -19.5630 -19.5630
   -19.5615 -19.5614 -19.5335 -19.5335 -19.5260 -19.5260 -19.5073 -19.5073
   -19.5054 -19.5054 -19.4906 -19.4906 -19.4887 -19.4887 -19.4682 -19.4682
   -19.4637 -19.4637 -19.4573 -19.4573 -19.4431 -19.4431 -19.4241 -19.4241
   -19.4237 -19.4237 -19.3905 -19.3905 -19.3657 -19.3657 -19.3476 -19.3476
    16.2396  16.2396  17.4280  17.4280  17.5131  17.5131  17.5464  17.5464
    17.6375  17.6375  17.7353  17.7353  17.8019  17.8019  17.8550  17.8550
    17.8777  17.8777  17.9171  17.9171  18.0166  18.0166  18.0620  18.0620
    18.0674  18.0674  18.2321  18.2321  18.4168  18.4168  18.4591  18.4591
    18.7418  18.7418  18.7611  18.7611  18.8153  18.8153  18.9027  18.9027
    19.1506  19.1506  19.1844  19.1844  19.2142  19.2142  19.2503  19.2503
    19.3211  19.3211  19.3846  19.3846  19.4010  19.4010  19.8714  19.8714
    19.9332  19.9332  19.9403  19.9403  19.9973  19.9973  20.0569  20.0569
    20.2067  20.2067  20.2264  20.2264  20.4030  20.4031  20.4354  20.4354
    20.5085  20.5085  20.5510  20.5510  20.6086  20.6086  20.7926  20.7926
    20.9010  20.9010  20.9952  20.9952  21.0723  21.0723  21.0800  21.0800
    21.1108  21.1108  21.1433  21.1433  21.5654  21.5654  21.6070  21.6070
    21.6410  21.6410  21.6903  21.6903  21.8594  21.8594  21.8637  21.8637
    22.1219  22.1219  22.2963  22.2963  22.3190  22.3190  22.3696  22.3696
    22.3761  22.3761  22.4400  22.4400  22.5034  22.5035  22.6118  22.6118
    22.8066  22.8066  22.8296  22.8296  22.9343  22.9343  23.1999  23.1999
    23.2338  23.2338  23.2368  23.2368  23.3056  23.3056  23.7592  23.7592
    23.8436  23.8436  23.8550  23.8550  24.0748  24.0748  24.1296  24.1296
    24.2557  24.2557  24.3090  24.3090  24.3098  24.3098  24.3311  24.3311
    24.3314  24.3314  24.3391  24.3391  24.3507  24.3507  24.5398  24.5398
    24.6800  24.6800  25.1054  25.1054  25.1545  25.1545  25.1596  25.1596
    25.3990  25.3990  25.6263  25.6263  25.6344  25.6344  26.1689  26.1689
    27.2346  27.2346  27.6607

          k = 0.0556 0.2778 0.2778 ( 30150 PWs)   bands (ev):

   -49.8841 -49.8333 -49.8333 -49.7951 -49.7929 -49.7754 -49.7659 -49.7659
   -49.7530 -49.7530 -49.7518 -49.7441 -49.7441 -49.7436 -49.7282 -49.7282
   -49.7277 -49.7277 -49.7190 -49.7190 -49.7142 -49.7142 -49.7011 -49.6928
   -49.6928 -49.6923 -49.6923 -49.6900 -49.6900 -49.6857 -49.6857 -49.6836
   -20.2653 -20.2653 -20.2292 -20.2084 -20.1964 -20.1883 -20.1883 -20.1283
   -20.1283 -20.1245 -20.1245 -20.0871 -20.0871 -20.0645 -20.0645 -20.0600
   -20.0600 -20.0574 -20.0574 -20.0497 -20.0497 -20.0225 -20.0225 -20.0224
   -20.0075 -20.0075 -19.9265 -19.9183 -19.8912 -19.8912 -19.8717 -19.8716
   -19.8630 -19.8562 -19.8229 -19.8229 -19.7509 -19.7509 -19.7504 -19.7226
   -19.7226 -19.7172 -19.7172 -19.6842 -19.6842 -19.6621 -19.6621 -19.6506
   -19.6506 -19.6447 -19.6444 -19.6444 -19.6303 -19.6303 -19.6088 -19.6088
   -19.5912 -19.5912 -19.5892 -19.5892 -19.5539 -19.5539 -19.5520 -19.5520
   -19.5375 -19.5375 -19.5360 -19.5277 -19.5066 -19.5066 -19.5051 -19.4985
   -19.4985 -19.4956 -19.4955 -19.4955 -19.4687 -19.4687 -19.4668 -19.4668
   -19.4641 -19.4569 -19.4433 -19.4414 -19.4414 -19.4393 -19.4314 -19.4314
   -19.4262 -19.4149 -19.4149 -19.3853 -19.3853 -19.3734 -19.3399 -19.3151
    15.8475  17.1113  17.1113  17.2333  17.2442  17.2442  17.3720  17.4568
    17.6229  17.6229  17.6665  17.6665  17.7710  17.8304  17.9008  17.9008
    17.9928  18.0440  18.0440  18.0447  18.0747  18.0747  18.1582  18.1582
    18.2117  18.2117  18.2839  18.2839  18.4852  18.5695  18.5695  18.5864
    18.5864  18.6182  18.6182  18.7052  18.7052  18.8034  18.8034  18.8805
    18.8805  18.9989  19.1452  19.1452  19.2149  19.2149  19.2179  19.4568
    19.4568  19.4728  19.4728  19.5172  19.5182  19.5182  19.5790  19.9151
    19.9151  20.0268  20.0268  20.1021  20.1021  20.1733  20.1733  20.2157
    20.2157  20.2296  20.2296  20.3130  20.3280  20.4016  20.4016  20.4843
    20.4913  20.5549  20.5549  20.7084  20.7084  20.7173  20.7723  20.7960
    20.8069  20.8415  20.8415  20.8602  20.8937  20.9091  20.9094  20.9094
    21.0684  21.0684  21.1952  21.1952  21.4266  21.4266  21.5642  21.5642
    21.6206  21.6206  21.7249  21.7249  21.7433  21.8164  21.8373  21.8373
    21.8759  21.8759  22.0513  22.0750  22.2122  22.2349  22.2349  22.2398
    22.2398  22.3650  22.4345  22.5674  22.5674  22.7153  22.7324  22.7324
    23.0156  23.0219  23.0219  23.1502  23.1502  23.1762  23.1762  23.2775
    23.2833  23.2961  23.2961  23.3821  23.3821  23.4859  23.4859  23.4932
    23.4932  23.5460  23.5460  23.8087  23.8359  23.8359  23.8921  23.9840
    23.9840  23.9891  24.0099  24.0099  24.1656  24.2185  24.3921  24.3921
    24.5957  24.7226  24.7226  24.7437  24.7499  24.7499  24.7566  24.7811
    24.9253  24.9253  24.9267  24.9267  24.9673  24.9673  24.9761  24.9761
    25.0748  25.4338  25.5317  25.5317  26.0477  26.0477  27.1057  27.1057
    27.3584  27.4093  27.4093

          k = 0.0556 0.2778 0.3889 ( 30193 PWs)   bands (ev):

   -49.8749 -49.8492 -49.8264 -49.8070 -49.7881 -49.7743 -49.7713 -49.7633
   -49.7600 -49.7561 -49.7513 -49.7465 -49.7412 -49.7331 -49.7281 -49.7250
   -49.7235 -49.7205 -49.7167 -49.7163 -49.7106 -49.7074 -49.7020 -49.6971
   -49.6969 -49.6963 -49.6962 -49.6923 -49.6909 -49.6885 -49.6850 -49.6840
   -20.2442 -20.2414 -20.1930 -20.1738 -20.1727 -20.1702 -20.1685 -20.1681
   -20.1565 -20.1202 -20.1202 -20.1189 -20.1057 -20.1038 -20.0871 -20.0853
   -20.0845 -20.0718 -20.0678 -20.0650 -20.0451 -20.0417 -20.0246 -20.0190
   -20.0126 -19.9826 -19.9522 -19.9511 -19.9211 -19.8965 -19.8531 -19.8435
   -19.8330 -19.8120 -19.8034 -19.7830 -19.7818 -19.7800 -19.7588 -19.7497
   -19.7095 -19.7090 -19.6914 -19.6781 -19.6700 -19.6672 -19.6497 -19.6467
   -19.6368 -19.6329 -19.6301 -19.6200 -19.6154 -19.6140 -19.6006 -19.5942
   -19.5848 -19.5834 -19.5829 -19.5817 -19.5743 -19.5616 -19.5510 -19.5478
   -19.5441 -19.5402 -19.5260 -19.5257 -19.5256 -19.5179 -19.5172 -19.5159
   -19.5034 -19.4935 -19.4912 -19.4852 -19.4813 -19.4803 -19.4786 -19.4780
   -19.4745 -19.4589 -19.4541 -19.4503 -19.4494 -19.4463 -19.4447 -19.4325
   -19.4194 -19.4191 -19.4029 -19.3727 -19.3658 -19.3587 -19.3564 -19.3226
    16.0832  16.7340  17.2894  17.3757  17.3861  17.4254  17.4751  17.5741
    17.7396  17.7694  17.7734  17.7923  17.8019  17.8149  17.8306  17.8449
    17.8755  17.9044  17.9541  17.9707  18.0000  18.0290  18.0849  18.0924
    18.1081  18.1438  18.2883  18.3026  18.3220  18.3256  18.3677  18.4314
    18.5016  18.5998  18.6614  18.7156  18.7276  18.7310  18.7724  18.7725
    18.8688  18.9575  18.9819  19.0616  19.1004  19.2245  19.2290  19.2632
    19.3405  19.4238  19.5473  19.5561  19.5838  19.5979  19.7657  19.8200
    19.8525  19.8736  19.9599  20.1006  20.1788  20.1799  20.2716  20.2885
    20.3105  20.3305  20.3357  20.4200  20.4644  20.4763  20.4802  20.6016
    20.6017  20.6738  20.6923  20.7129  20.7198  20.7445  20.8262  20.8765
    20.9176  20.9246  20.9583  20.9699  20.9835  21.0600  21.0907  21.0948
    21.0978  21.1710  21.2042  21.2238  21.3051  21.3686  21.4196  21.5112
    21.5733  21.5787  21.6122  21.6370  21.6698  21.6945  21.7186  21.7297
    21.8373  21.8505  21.8725  21.9296  22.0478  22.0811  22.0945  22.1502
    22.2578  22.2646  22.4303  22.4544  22.5786  22.6151  22.6997  22.7755
    22.9244  22.9526  22.9630  23.0121  23.0844  23.1729  23.2354  23.2438
    23.3255  23.3611  23.4090  23.5135  23.5230  23.5385  23.6099  23.6722
    23.7216  23.7226  23.8790  23.8807  23.8820  23.9289  24.1086  24.1540
    24.1728  24.1887  24.2282  24.2345  24.2488  24.2553  24.2574  24.2982
    24.3703  24.5201  24.5882  24.6061  24.6070  24.6191  24.6379  24.6427
    24.6502  24.7175  24.9219  24.9324  24.9377  24.9512  25.0036  25.0428
    25.3680  25.4881  25.5080  25.5255  25.5717  25.8935  26.7657  26.7805
    27.5417  27.7184  28.0268

          k = 0.0556 0.2778-0.5000 ( 30164 PWs)   bands (ev):

   -49.8632 -49.8632 -49.8175 -49.8175 -49.7818 -49.7818 -49.7661 -49.7661
   -49.7600 -49.7600 -49.7491 -49.7490 -49.7375 -49.7375 -49.7225 -49.7225
   -49.7198 -49.7198 -49.7139 -49.7139 -49.7057 -49.7057 -49.7033 -49.7033
   -49.7013 -49.7013 -49.6920 -49.6920 -49.6916 -49.6916 -49.6845 -49.6844
   -20.2132 -20.2132 -20.2085 -20.2085 -20.1503 -20.1503 -20.1469 -20.1469
   -20.1421 -20.1421 -20.1216 -20.1216 -20.1151 -20.1151 -20.1075 -20.1075
   -20.1052 -20.1052 -20.0794 -20.0794 -20.0309 -20.0309 -20.0234 -20.0234
   -19.9887 -19.9887 -19.9459 -19.9459 -19.9398 -19.9398 -19.8163 -19.8163
   -19.8139 -19.8139 -19.7955 -19.7955 -19.7787 -19.7787 -19.7600 -19.7600
   -19.7418 -19.7418 -19.6485 -19.6485 -19.6456 -19.6456 -19.6433 -19.6433
   -19.6338 -19.6338 -19.6320 -19.6320 -19.6192 -19.6192 -19.6101 -19.6101
   -19.5811 -19.5811 -19.5725 -19.5725 -19.5562 -19.5562 -19.5548 -19.5548
   -19.5372 -19.5372 -19.5310 -19.5310 -19.5276 -19.5276 -19.5150 -19.5150
   -19.5016 -19.5016 -19.4869 -19.4869 -19.4854 -19.4854 -19.4850 -19.4850
   -19.4745 -19.4745 -19.4630 -19.4630 -19.4490 -19.4490 -19.4301 -19.4301
   -19.4253 -19.4253 -19.3776 -19.3776 -19.3657 -19.3657 -19.3374 -19.3374
    16.3836  16.3836  17.5128  17.5128  17.5577  17.5577  17.5643  17.5643
    17.6288  17.6288  17.6511  17.6511  17.7405  17.7405  17.9136  17.9136
    17.9329  17.9329  18.0250  18.0250  18.0446  18.0446  18.0796  18.0797
    18.0809  18.0809  18.2008  18.2008  18.2189  18.2189  18.3309  18.3309
    18.5232  18.5232  18.6270  18.6270  18.7363  18.7363  18.8620  18.8621
    18.8654  18.8654  19.0086  19.0086  19.1128  19.1128  19.1431  19.1431
    19.5090  19.5090  19.5871  19.5871  19.6782  19.6782  19.6869  19.6869
    19.7215  19.7215  19.9906  19.9906  20.2374  20.2374  20.3451  20.3451
    20.3695  20.3695  20.4563  20.4563  20.4746  20.4746  20.5126  20.5126
    20.5990  20.5990  20.7494  20.7494  20.8595  20.8595  20.9546  20.9546
    20.9588  20.9588  21.0324  21.0324  21.0715  21.0715  21.0881  21.0881
    21.2571  21.2571  21.2898  21.2898  21.3083  21.3083  21.3136  21.3136
    21.4935  21.4935  21.4987  21.4987  21.5984  21.5984  21.6064  21.6064
    21.8181  21.8181  22.0420  22.0420  22.1906  22.1906  22.2143  22.2143
    22.2522  22.2522  22.2934  22.2934  22.4035  22.4035  22.5920  22.5920
    22.7865  22.7865  23.1024  23.1024  23.1410  23.1410  23.2050  23.2050
    23.3475  23.3475  23.6008  23.6008  23.6408  23.6408  23.7568  23.7568
    23.8518  23.8518  23.9249  23.9249  24.0075  24.0075  24.0080  24.0080
    24.2615  24.2615  24.2621  24.2621  24.3676  24.3676  24.4344  24.4344
    24.4347  24.4347  24.4553  24.4553  24.4756  24.4756  24.4774  24.4774
    24.5799  24.5799  24.9401  24.9401  24.9613  24.9613  25.0080  25.0080
    25.1593  25.1593  25.7016  25.7016  26.1014  26.1014  26.1807  26.1807
    27.9037  27.9038  28.2320

          k = 0.0556 0.3889 0.3889 ( 30175 PWs)   bands (ev):

   -49.8662 -49.8416 -49.8416 -49.8202 -49.7836 -49.7710 -49.7710 -49.7677
   -49.7618 -49.7575 -49.7575 -49.7506 -49.7259 -49.7259 -49.7200 -49.7199
   -49.7195 -49.7194 -49.7129 -49.7129 -49.7105 -49.7105 -49.7011 -49.7011
   -49.7006 -49.7006 -49.6985 -49.6985 -49.6927 -49.6871 -49.6871 -49.6848
   -20.2247 -20.2247 -20.1625 -20.1625 -20.1606 -20.1606 -20.1562 -20.1495
   -20.1441 -20.1441 -20.1266 -20.1176 -20.1176 -20.1082 -20.1082 -20.0842
   -20.0842 -20.0702 -20.0702 -20.0687 -20.0687 -20.0679 -20.0679 -20.0304
   -20.0304 -20.0287 -19.9899 -19.9454 -19.9397 -19.8869 -19.8869 -19.8158
   -19.7955 -19.7954 -19.7613 -19.7613 -19.7554 -19.7242 -19.7242 -19.7095
   -19.7095 -19.7083 -19.7083 -19.6920 -19.6920 -19.6441 -19.6441 -19.6435
   -19.6435 -19.6297 -19.6297 -19.6222 -19.6207 -19.6207 -19.6173 -19.6173
   -19.6042 -19.6042 -19.5738 -19.5738 -19.5656 -19.5656 -19.5621 -19.5533
   -19.5533 -19.5292 -19.5292 -19.5250 -19.5177 -19.5177 -19.5177 -19.5177
   -19.5000 -19.4951 -19.4950 -19.4937 -19.4937 -19.4869 -19.4792 -19.4721
   -19.4665 -19.4609 -19.4570 -19.4551 -19.4551 -19.4482 -19.4435 -19.4259
   -19.4259 -19.4211 -19.4211 -19.3734 -19.3527 -19.3497 -19.3497 -19.3239
    16.3073  16.9273  16.9273  17.4583  17.4923  17.5434  17.5699  17.5699
    17.6550  17.8104  17.8104  17.8359  17.8640  17.8640  17.9296  17.9296
    17.9420  17.9420  17.9463  17.9463  17.9788  17.9886  17.9886  18.0592
    18.0592  18.1288  18.1761  18.2427  18.2427  18.4396  18.4396  18.4408
    18.4408  18.4485  18.4485  18.4506  18.4506  18.6907  18.6907  18.7016
    18.7016  18.7566  18.7566  19.0073  19.0073  19.1378  19.3436  19.3436
    19.3487  19.3487  19.5166  19.6754  19.6754  19.6929  19.7066  19.7705
    19.7705  20.0956  20.1075  20.1075  20.2701  20.3729  20.3729  20.4844
    20.5004  20.5004  20.5074  20.5074  20.5139  20.5139  20.5482  20.5482
    20.6239  20.6697  20.8328  20.8328  20.9268  20.9268  20.9403  20.9909
    20.9922  21.0057  21.0158  21.0552  21.1059  21.1059  21.1391  21.1391
    21.2810  21.2810  21.2971  21.2971  21.3002  21.3282  21.3282  21.3797
    21.4532  21.4532  21.4859  21.4859  21.5058  21.5177  21.5593  21.5593
    21.5826  21.5826  21.7211  21.7915  21.7915  21.8225  21.8225  22.1011
    22.2517  22.2517  22.2665  22.2665  22.3538  22.3538  22.4167  22.5031
    22.8155  23.1433  23.1921  23.1921  23.2152  23.2152  23.4815  23.4815
    23.4923  23.4923  23.5916  23.5916  23.6519  23.6519  23.7215  23.7599
    23.9050  23.9051  24.0113  24.0385  24.0385  24.0557  24.0557  24.0650
    24.0650  24.1515  24.2600  24.3587  24.3945  24.4166  24.4166  24.4195
    24.4195  24.4639  24.5272  24.5831  24.5831  24.6299  24.6299  24.6446
    24.6446  24.6703  24.6748  24.6748  24.6919  24.6919  24.8627  24.8902
    24.8902  25.2214  25.3864  25.3864  26.1496  26.1496  27.4313  27.4313
    27.4981  27.4981  28.2153

          k = 0.0556 0.3889-0.5000 ( 30172 PWs)   bands (ev):

   -49.8550 -49.8550 -49.8318 -49.8318 -49.7778 -49.7778 -49.7668 -49.7668
   -49.7630 -49.7630 -49.7544 -49.7544 -49.7232 -49.7232 -49.7159 -49.7159
   -49.7146 -49.7146 -49.7124 -49.7124 -49.7083 -49.7083 -49.7062 -49.7062
   -49.7051 -49.7051 -49.6999 -49.6999 -49.6896 -49.6896 -49.6858 -49.6858
   -20.1980 -20.1980 -20.1963 -20.1963 -20.1434 -20.1434 -20.1433 -20.1433
   -20.1280 -20.1280 -20.1196 -20.1196 -20.1139 -20.1139 -20.1098 -20.1098
   -20.0923 -20.0923 -20.0798 -20.0798 -20.0699 -20.0699 -20.0574 -20.0574
   -20.0298 -20.0298 -19.9855 -19.9855 -19.9191 -19.9191 -19.8513 -19.8513
   -19.7590 -19.7590 -19.7501 -19.7501 -19.7375 -19.7375 -19.7237 -19.7237
   -19.6987 -19.6987 -19.6737 -19.6737 -19.6698 -19.6698 -19.6680 -19.6680
   -19.6601 -19.6601 -19.6255 -19.6255 -19.6113 -19.6113 -19.6040 -19.6040
   -19.5889 -19.5889 -19.5822 -19.5822 -19.5811 -19.5811 -19.5635 -19.5635
   -19.5432 -19.5432 -19.5426 -19.5426 -19.5106 -19.5106 -19.5071 -19.5071
   -19.5070 -19.5070 -19.4992 -19.4992 -19.4754 -19.4754 -19.4711 -19.4711
   -19.4674 -19.4674 -19.4621 -19.4621 -19.4444 -19.4444 -19.4395 -19.4395
   -19.4347 -19.4347 -19.3951 -19.3951 -19.3474 -19.3474 -19.3331 -19.3331
    16.5931  16.5931  17.1725  17.1725  17.6558  17.6558  17.6560  17.6560
    17.7447  17.7447  17.7781  17.7781  17.7997  17.7997  17.8127  17.8127
    17.9497  17.9497  17.9752  17.9752  18.0796  18.0796  18.1679  18.1679
    18.1734  18.1734  18.2008  18.2008  18.2052  18.2052  18.2466  18.2466
    18.4224  18.4224  18.4501  18.4501  18.5611  18.5611  18.5981  18.5981
    18.6203  18.6203  18.9103  18.9103  19.1379  19.1379  19.1518  19.1518
    19.4921  19.4921  19.5029  19.5029  19.7501  19.7501  19.8318  19.8318
    19.9556  19.9556  20.0338  20.0338  20.2260  20.2260  20.4789  20.4789
    20.5321  20.5321  20.5868  20.5868  20.6766  20.6766  20.7280  20.7280
    20.8383  20.8383  20.8584  20.8584  20.8855  20.8855  21.0458  21.0458
    21.0529  21.0529  21.0758  21.0758  21.0994  21.0994  21.1310  21.1310
    21.1907  21.1907  21.2350  21.2350  21.2471  21.2471  21.2745  21.2745
    21.3838  21.3838  21.3910  21.3910  21.5365  21.5365  21.5605  21.5605
    21.5672  21.5672  21.7265  21.7265  21.9715  21.9715  21.9741  21.9741
    22.0229  22.0229  22.0424  22.0424  22.1942  22.1942  22.3748  22.3748
    23.0175  23.0175  23.2832  23.2832  23.3959  23.3959  23.4402  23.4402
    23.4694  23.4694  23.7062  23.7062  23.7814  23.7814  23.8016  23.8016
    23.8775  23.8775  23.9599  23.9599  24.0743  24.0743  24.2143  24.2143
    24.2793  24.2793  24.3698  24.3698  24.4375  24.4375  24.4396  24.4396
    24.4576  24.4576  24.5242  24.5242  24.5272  24.5272  24.5623  24.5623
    24.5669  24.5669  24.6471  24.6471  24.7014  24.7014  24.7598  24.7598
    24.8774  24.8774  25.2374  25.2374  26.8019  26.8019  26.8039  26.8039
    28.1462  28.1462  28.2161

          k = 0.0556-0.5000-0.5000 ( 30160 PWs)   bands (ev):

   -49.8444 -49.8444 -49.8444 -49.8444 -49.7728 -49.7728 -49.7728 -49.7728
   -49.7591 -49.7591 -49.7591 -49.7591 -49.7105 -49.7105 -49.7105 -49.7105
   -49.7105 -49.7105 -49.7105 -49.7105 -49.7101 -49.7101 -49.7101 -49.7101
   -49.7100 -49.7100 -49.7100 -49.7100 -49.6875 -49.6875 -49.6875 -49.6875
   -20.1743 -20.1743 -20.1743 -20.1743 -20.1743 -20.1743 -20.1743 -20.1743
   -20.1023 -20.1023 -20.1023 -20.1023 -20.1023 -20.1023 -20.1023 -20.1023
   -20.0909 -20.0909 -20.0909 -20.0909 -20.0728 -20.0728 -20.0728 -20.0728
   -20.0335 -20.0335 -20.0335 -20.0335 -19.8862 -19.8862 -19.8862 -19.8862
   -19.7070 -19.7070 -19.7070 -19.7070 -19.7070 -19.7070 -19.7070 -19.7070
   -19.7008 -19.7008 -19.7008 -19.7008 -19.7008 -19.7008 -19.7008 -19.7008
   -19.6388 -19.6388 -19.6388 -19.6388 -19.5967 -19.5967 -19.5967 -19.5967
   -19.5967 -19.5967 -19.5967 -19.5967 -19.5941 -19.5941 -19.5941 -19.5941
   -19.5264 -19.5264 -19.5264 -19.5264 -19.5264 -19.5264 -19.5264 -19.5264
   -19.4909 -19.4908 -19.4908 -19.4908 -19.4769 -19.4769 -19.4769 -19.4769
   -19.4544 -19.4544 -19.4544 -19.4544 -19.4497 -19.4497 -19.4497 -19.4497
   -19.4176 -19.4176 -19.4176 -19.4176 -19.3363 -19.3363 -19.3363 -19.3363
    16.8601  16.8601  16.8601  16.8601  17.7182  17.7182  17.7182  17.7182
    17.7925  17.7925  17.7925  17.7925  17.8480  17.8480  17.8480  17.8480
    17.9792  17.9792  17.9792  17.9792  17.9792  17.9792  17.9792  17.9792
    18.2972  18.2972  18.2972  18.2972  18.2972  18.2972  18.2972  18.2972
    18.3979  18.3979  18.3979  18.3979  18.3979  18.3979  18.3979  18.3979
    18.6601  18.6601  18.6601  18.6601  19.3042  19.3042  19.3042  19.3042
    19.3042  19.3042  19.3042  19.3042  19.8762  19.8762  19.8762  19.8762
    20.1066  20.1066  20.1066  20.1066  20.3859  20.3859  20.3859  20.3859
    20.6097  20.6097  20.6097  20.6097  20.6209  20.6209  20.6209  20.6209
    20.9720  20.9720  20.9720  20.9720  20.9720  20.9720  20.9720  20.9720
    21.0783  21.0783  21.0783  21.0783  21.2152  21.2152  21.2152  21.2152
    21.2300  21.2300  21.2300  21.2300  21.3710  21.3710  21.3710  21.3710
    21.3842  21.3842  21.3842  21.3842  21.3842  21.3842  21.3842  21.3842
    21.6546  21.6546  21.6546  21.6546  21.7823  21.7823  21.7823  21.7823
    21.7823  21.7823  21.7823  21.7823  22.2842  22.2842  22.2842  22.2842
    23.2556  23.2556  23.2556  23.2556  23.4571  23.4571  23.4571  23.4571
    23.6667  23.6667  23.6667  23.6667  23.6667  23.6667  23.6667  23.6667
    24.1856  24.1856  24.1856  24.1856  24.3119  24.3119  24.3119  24.3119
    24.3119  24.3119  24.3119  24.3119  24.3132  24.3132  24.3132  24.3132
    24.5480  24.5480  24.5480  24.5480  24.5768  24.5768  24.5768  24.5768
    24.5768  24.5768  24.5768  24.5768  24.5876  24.5876  24.5876  24.5876
    24.8440  24.8440  24.8440  24.8440  27.4900  27.4900  27.4900  27.4900
    27.4900  27.4900  27.4900

          k = 0.1667 0.1667 0.1667 ( 30217 PWs)   bands (ev):

   -49.8936 -49.8182 -49.8182 -49.8182 -49.7697 -49.7697 -49.7697 -49.7627
   -49.7627 -49.7627 -49.7488 -49.7343 -49.7343 -49.7343 -49.7343 -49.7343
   -49.7343 -49.7339 -49.7339 -49.7338 -49.7139 -49.7139 -49.7139 -49.6866
   -49.6866 -49.6866 -49.6862 -49.6862 -49.6862 -49.6861 -49.6861 -49.6861
   -20.2830 -20.2830 -20.2830 -20.2468 -20.2175 -20.2175 -20.2175 -20.0831
   -20.0831 -20.0831 -20.0645 -20.0645 -20.0645 -20.0645 -20.0645 -20.0645
   -20.0443 -20.0443 -20.0443 -20.0443 -20.0443 -20.0443 -19.9783 -19.9783
   -19.9783 -19.9380 -19.9380 -19.9380 -19.8904 -19.8904 -19.8904 -19.8904
   -19.8904 -19.8904 -19.8076 -19.8076 -19.8076 -19.7195 -19.7195 -19.7195
   -19.6969 -19.6969 -19.6969 -19.6969 -19.6969 -19.6969 -19.6938 -19.6938
   -19.6938 -19.6553 -19.6553 -19.6553 -19.6500 -19.6500 -19.6500 -19.6500
   -19.6500 -19.6500 -19.5858 -19.5858 -19.5858 -19.5426 -19.5426 -19.5426
   -19.5321 -19.5321 -19.5321 -19.4913 -19.4913 -19.4913 -19.4838 -19.4838
   -19.4838 -19.4674 -19.4674 -19.4674 -19.4674 -19.4674 -19.4674 -19.4570
   -19.4570 -19.4570 -19.4409 -19.4409 -19.4409 -19.4347 -19.4347 -19.4347
   -19.4325 -19.4325 -19.3995 -19.3995 -19.3995 -19.3760 -19.3150 -19.3150
    15.6019  17.0765  17.0765  17.0765  17.2452  17.4008  17.4008  17.4008
    17.4104  17.4104  17.4104  17.5378  17.5378  17.5378  17.9094  17.9094
    17.9094  18.2823  18.2823  18.2823  18.2823  18.2823  18.2823  18.3150
    18.3150  18.3150  18.4782  18.4782  18.4782  18.7053  18.7053  18.7053
    18.7349  18.7349  18.7349  18.7349  18.7349  18.7349  19.0707  19.0707
    19.0707  19.0707  19.0707  19.0707  19.2473  19.2473  19.2473  19.5846
    19.5846  19.5846  19.7322  19.7322  19.7322  19.7322  19.7322  19.7322
    19.8782  19.8782  19.8782  19.9591  19.9591  19.9591  19.9591  19.9591
    19.9591  20.2573  20.2573  20.2573  20.4441  20.4441  20.4441  20.4584
    20.4765  20.4765  20.4765  20.4765  20.4765  20.4765  20.5054  20.5054
    20.5054  20.5659  20.5659  20.7026  20.7026  20.7026  20.7210  20.7210
    21.2487  21.2487  21.2487  21.5321  21.5321  21.5321  21.5953  21.5953
    21.5953  21.7749  21.7749  21.7749  21.9720  21.9720  21.9720  22.0268
    22.0268  22.0268  22.0268  22.0268  22.0268  22.4398  22.4398  22.4398
    22.6054  22.6054  22.6054  22.7263  22.7263  22.7263  22.7580  22.7580
    22.7580  22.8255  22.8255  22.8255  22.8255  22.8255  22.8255  22.9141
    22.9141  23.2224  23.3977  23.3977  23.3977  23.3977  23.3977  23.3977
    23.6557  23.6557  23.6557  23.6677  23.6677  23.6677  23.7610  23.7610
    23.7610  24.0650  24.0650  24.0650  24.2388  24.2388  24.2388  24.4398
    24.4398  24.4398  24.5245  24.5245  24.8251  24.8251  24.8251  25.0506
    25.0506  25.0506  25.0506  25.0506  25.0506  25.1654  25.1654  25.1654
    25.6493  25.6493  25.6493  26.1335  26.1335  26.1335  27.2507  27.2507
    27.2507  27.2507  27.2508

          k = 0.1667 0.1667 0.2778 ( 30175 PWs)   bands (ev):

   -49.8872 -49.8357 -49.8141 -49.8141 -49.7809 -49.7809 -49.7679 -49.7603
   -49.7603 -49.7536 -49.7451 -49.7409 -49.7409 -49.7343 -49.7343 -49.7339
   -49.7339 -49.7292 -49.7231 -49.7231 -49.7155 -49.7074 -49.7074 -49.6930
   -49.6902 -49.6902 -49.6885 -49.6885 -49.6865 -49.6865 -49.6862 -49.6862
   -20.2725 -20.2620 -20.2620 -20.2138 -20.2027 -20.2027 -20.1946 -20.1315
   -20.1051 -20.1050 -20.0829 -20.0829 -20.0783 -20.0783 -20.0780 -20.0780
   -20.0596 -20.0596 -20.0474 -20.0474 -20.0454 -20.0454 -20.0221 -20.0044
   -19.9556 -19.9556 -19.9372 -19.9372 -19.8979 -19.8979 -19.8654 -19.8654
   -19.8503 -19.8503 -19.8403 -19.8403 -19.7547 -19.7547 -19.7486 -19.7338
   -19.7338 -19.7156 -19.7156 -19.6810 -19.6608 -19.6608 -19.6560 -19.6560
   -19.6507 -19.6507 -19.6491 -19.6491 -19.6469 -19.6449 -19.6299 -19.6299
   -19.6245 -19.6245 -19.5773 -19.5607 -19.5533 -19.5533 -19.5515 -19.5514
   -19.5514 -19.5226 -19.5224 -19.5224 -19.5109 -19.5109 -19.5004 -19.5004
   -19.4999 -19.4999 -19.4883 -19.4711 -19.4711 -19.4670 -19.4670 -19.4648
   -19.4620 -19.4620 -19.4509 -19.4509 -19.4383 -19.4248 -19.4208 -19.4208
   -19.4122 -19.4119 -19.4023 -19.4017 -19.3903 -19.3903 -19.3257 -19.3185
    15.7658  17.0428  17.1750  17.1895  17.1895  17.3002  17.5043  17.5043
    17.5057  17.5057  17.5528  17.6119  17.6674  17.6674  17.8161  17.9996
    17.9996  18.0366  18.0583  18.0583  18.1474  18.1474  18.2502  18.3359
    18.3359  18.3938  18.3938  18.4027  18.4027  18.4930  18.6014  18.6014
    18.6061  18.6061  18.6261  18.6261  18.7156  18.7156  18.8245  18.8245
    19.0819  19.0819  19.1042  19.1042  19.3194  19.3194  19.4521  19.4521
    19.5064  19.5064  19.5130  19.5642  19.5992  19.5992  19.7947  19.7947
    19.7968  19.7968  19.9665  19.9665  19.9836  19.9836  20.0966  20.1805
    20.1805  20.2781  20.3626  20.3626  20.3652  20.4091  20.4091  20.4798
    20.4798  20.4912  20.4912  20.5928  20.6042  20.6114  20.6114  20.6167
    20.7874  20.8015  20.8143  20.8143  20.8210  20.8406  21.0215  21.0215
    21.0808  21.0808  21.2712  21.2712  21.2755  21.2821  21.5096  21.5435
    21.5435  21.7143  21.7143  21.7331  21.7447  21.7447  21.9994  22.1349
    22.1349  22.1710  22.1710  22.2461  22.2736  22.2736  22.3596  22.3596
    22.3868  22.5213  22.5213  22.5971  22.5971  22.6176  22.6176  22.7320
    22.7598  22.7598  22.7865  22.8242  22.8242  22.9536  22.9747  23.0726
    23.0929  23.0929  23.4475  23.4475  23.4791  23.5058  23.5058  23.7306
    23.7306  23.7354  23.7354  23.7429  23.7429  23.7907  23.8784  23.8784
    23.9056  23.9056  23.9199  24.2648  24.2648  24.2727  24.2835  24.3559
    24.4336  24.5277  24.5277  24.6511  24.7655  24.7908  24.7908  24.8658
    24.8658  24.8677  24.8677  25.0563  25.0563  25.0714  25.1375  25.1375
    25.1702  25.1702  25.5348  26.3199  26.3199  26.7122  26.7122  26.8624
    27.0802  27.1557  27.1557

          k = 0.1667 0.1667 0.3889 ( 30171 PWs)   bands (ev):

   -49.8779 -49.8518 -49.8081 -49.8081 -49.7913 -49.7913 -49.7653 -49.7581
   -49.7568 -49.7568 -49.7469 -49.7469 -49.7342 -49.7342 -49.7340 -49.7340
   -49.7288 -49.7249 -49.7179 -49.7129 -49.7129 -49.7024 -49.7015 -49.7015
   -49.6961 -49.6961 -49.6919 -49.6919 -49.6864 -49.6864 -49.6863 -49.6863
   -20.2509 -20.2317 -20.2317 -20.1809 -20.1809 -20.1784 -20.1724 -20.1610
   -20.1502 -20.1502 -20.1199 -20.1199 -20.0837 -20.0837 -20.0732 -20.0732
   -20.0730 -20.0696 -20.0696 -20.0647 -20.0503 -20.0503 -20.0262 -20.0262
   -19.9781 -19.9781 -19.8983 -19.8983 -19.8922 -19.8922 -19.8679 -19.8679
   -19.8359 -19.8359 -19.8110 -19.8110 -19.7981 -19.7981 -19.7696 -19.7696
   -19.7427 -19.7427 -19.6862 -19.6622 -19.6485 -19.6485 -19.6483 -19.6483
   -19.6298 -19.6274 -19.6274 -19.6105 -19.6105 -19.6096 -19.6023 -19.6023
   -19.5945 -19.5945 -19.5871 -19.5779 -19.5725 -19.5725 -19.5706 -19.5356
   -19.5356 -19.5347 -19.5347 -19.5290 -19.5290 -19.5199 -19.5199 -19.5145
   -19.5076 -19.5076 -19.4840 -19.4800 -19.4800 -19.4721 -19.4689 -19.4689
   -19.4666 -19.4666 -19.4646 -19.4646 -19.4589 -19.4549 -19.4177 -19.4063
   -19.4053 -19.4053 -19.3885 -19.3885 -19.3851 -19.3724 -19.3412 -19.3297
    16.0046  16.6628  17.3142  17.3540  17.3540  17.4092  17.6388  17.6388
    17.6581  17.6581  17.6591  17.7221  17.7483  17.7824  17.8054  17.8054
    17.8572  17.8572  17.9723  17.9723  18.0446  18.1099  18.1099  18.1257
    18.1257  18.2360  18.3903  18.3903  18.4033  18.4033  18.4442  18.4442
    18.5491  18.5491  18.5509  18.5509  18.7846  18.7846  18.8421  18.8421
    19.0957  19.0957  19.1679  19.1680  19.2231  19.2231  19.3024  19.3024
    19.3887  19.3887  19.4221  19.4221  19.6391  19.6792  19.6792  19.7693
    19.8804  19.8805  19.9282  20.0149  20.0150  20.0845  20.0845  20.2086
    20.2294  20.2294  20.2395  20.2395  20.4826  20.5002  20.5002  20.5042
    20.5042  20.5853  20.6886  20.6886  20.7153  20.8620  20.8620  20.9074
    20.9084  20.9084  20.9173  20.9173  20.9218  20.9665  20.9665  20.9743
    21.0199  21.0484  21.2113  21.2133  21.2773  21.4778  21.4905  21.4905
    21.5905  21.5905  21.6112  21.6112  21.6719  21.6719  21.9054  21.9055
    22.0015  22.1278  22.2619  22.3047  22.3047  22.3246  22.3246  22.4746
    22.4991  22.4991  22.5052  22.5052  22.5444  22.5444  22.6123  22.6531
    22.6531  22.6740  22.6740  22.7810  22.7810  22.8731  22.8731  23.0639
    23.3118  23.3191  23.4122  23.4161  23.4161  23.4165  23.5531  23.5531
    23.8234  23.8235  23.9610  23.9610  23.9914  24.0345  24.0345  24.0349
    24.0519  24.0519  24.0762  24.0762  24.1210  24.1210  24.1871  24.6197
    24.6277  24.6277  24.6307  24.6320  24.6320  24.6358  24.6358  24.7162
    24.7162  24.8993  24.9441  25.0111  25.0397  25.0397  25.0664  25.0664
    25.1066  25.1066  25.3660  26.1585  26.1585  26.4170  26.5643  26.5643
    27.0074  27.0074  27.5359

          k = 0.1667 0.1667-0.5000 ( 30122 PWs)   bands (ev):

   -49.8660 -49.8660 -49.8004 -49.8004 -49.8004 -49.8004 -49.7620 -49.7620
   -49.7523 -49.7523 -49.7523 -49.7523 -49.7341 -49.7341 -49.7341 -49.7341
   -49.7211 -49.7211 -49.7145 -49.7145 -49.7038 -49.7038 -49.7038 -49.7038
   -49.6962 -49.6962 -49.6962 -49.6962 -49.6864 -49.6864 -49.6863 -49.6863
   -20.2190 -20.2190 -20.1936 -20.1936 -20.1936 -20.1936 -20.1530 -20.1530
   -20.1530 -20.1530 -20.1245 -20.1245 -20.1173 -20.1173 -20.0818 -20.0818
   -20.0818 -20.0818 -20.0593 -20.0593 -20.0593 -20.0593 -20.0025 -20.0025
   -20.0025 -20.0025 -19.8881 -19.8881 -19.8881 -19.8881 -19.8450 -19.8450
   -19.8450 -19.8450 -19.8037 -19.8037 -19.8037 -19.8037 -19.7747 -19.7747
   -19.7747 -19.7747 -19.6479 -19.6479 -19.6479 -19.6479 -19.6382 -19.6382
   -19.6258 -19.6258 -19.6103 -19.6103 -19.5975 -19.5975 -19.5975 -19.5975
   -19.5696 -19.5696 -19.5696 -19.5696 -19.5668 -19.5668 -19.5668 -19.5668
   -19.5640 -19.5640 -19.5640 -19.5640 -19.5147 -19.5147 -19.4927 -19.4927
   -19.4927 -19.4927 -19.4921 -19.4921 -19.4921 -19.4921 -19.4810 -19.4810
   -19.4785 -19.4785 -19.4659 -19.4659 -19.4658 -19.4658 -19.4115 -19.4115
   -19.3938 -19.3938 -19.3938 -19.3938 -19.3612 -19.3612 -19.3480 -19.3480
    16.3087  16.3087  17.4819  17.4819  17.5633  17.5633  17.5633  17.5633
    17.5710  17.5710  17.7987  17.7987  17.7987  17.7987  17.8607  17.8607
    17.8607  17.8607  17.8671  17.8671  17.9800  17.9800  18.1010  18.1010
    18.1010  18.1010  18.2780  18.2780  18.2780  18.2780  18.4754  18.4754
    18.4754  18.4754  18.7282  18.7282  18.7282  18.7282  19.0222  19.0222
    19.0222  19.0222  19.1214  19.1214  19.1214  19.1214  19.2663  19.2663
    19.2663  19.2663  19.5469  19.5470  19.5470  19.5470  19.7691  19.7691
    19.9806  19.9806  19.9806  19.9806  20.0052  20.0052  20.1059  20.1059
    20.1059  20.1059  20.5085  20.5085  20.5085  20.5085  20.5498  20.5498
    20.5559  20.5559  20.5559  20.5559  20.7850  20.7850  20.7850  20.7850
    20.8601  20.8601  21.0613  21.0613  21.0808  21.0808  21.1123  21.1123
    21.1123  21.1123  21.2351  21.2351  21.4806  21.4806  21.4806  21.4806
    21.5263  21.5263  21.6089  21.6089  21.6335  21.6335  21.6335  21.6335
    22.2331  22.2331  22.2331  22.2331  22.4140  22.4140  22.4140  22.4140
    22.4188  22.4188  22.5047  22.5047  22.5047  22.5047  22.6227  22.6227
    22.6227  22.6227  22.6738  22.6738  22.6738  22.6738  22.9611  22.9611
    23.1796  23.1796  23.6626  23.6626  23.6894  23.6894  23.6894  23.6894
    23.7432  23.7432  23.7433  23.7433  23.7433  23.7433  24.3021  24.3021
    24.3021  24.3021  24.3521  24.3521  24.3521  24.3521  24.3774  24.3774
    24.3774  24.3774  24.3863  24.3863  24.3863  24.3863  24.4321  24.4321
    24.7916  24.7916  25.0826  25.0826  25.0826  25.0826  25.1495  25.1495
    25.5962  25.5962  25.5962  25.5962  25.7090  25.7090  26.8059  26.8059
    26.8059  26.8059  28.0913

          k = 0.1667 0.2778 0.2778 ( 30156 PWs)   bands (ev):

   -49.8811 -49.8311 -49.8311 -49.8102 -49.7936 -49.7786 -49.7786 -49.7599
   -49.7581 -49.7432 -49.7432 -49.7403 -49.7403 -49.7355 -49.7282 -49.7282
   -49.7277 -49.7277 -49.7236 -49.7236 -49.7096 -49.7096 -49.7025 -49.6927
   -49.6927 -49.6923 -49.6923 -49.6908 -49.6908 -49.6880 -49.6880 -49.6867
   -20.2559 -20.2559 -20.2389 -20.1883 -20.1828 -20.1828 -20.1777 -20.1276
   -20.1276 -20.1158 -20.1158 -20.0888 -20.0888 -20.0843 -20.0843 -20.0766
   -20.0766 -20.0726 -20.0725 -20.0725 -20.0698 -20.0698 -20.0153 -20.0153
   -19.9806 -19.9806 -19.9764 -19.8892 -19.8694 -19.8694 -19.8679 -19.8576
   -19.8576 -19.8282 -19.8282 -19.7916 -19.7776 -19.7776 -19.7415 -19.7012
   -19.7012 -19.6977 -19.6976 -19.6938 -19.6938 -19.6859 -19.6859 -19.6402
   -19.6402 -19.6398 -19.6316 -19.6316 -19.6266 -19.6266 -19.6237 -19.6237
   -19.6093 -19.6093 -19.5888 -19.5888 -19.5532 -19.5532 -19.5477 -19.5417
   -19.5417 -19.5254 -19.5240 -19.5208 -19.5208 -19.5179 -19.5069 -19.5069
   -19.5060 -19.5060 -19.5046 -19.4977 -19.4977 -19.4741 -19.4741 -19.4720
   -19.4720 -19.4701 -19.4512 -19.4383 -19.4301 -19.4262 -19.4228 -19.4206
   -19.4206 -19.3941 -19.3941 -19.3896 -19.3896 -19.3757 -19.3336 -19.3202
    15.9231  17.1499  17.1499  17.2819  17.2871  17.2871  17.3296  17.5565
    17.5800  17.6604  17.6604  17.7407  17.7407  17.8082  17.9108  17.9108
    17.9223  17.9223  17.9282  18.0217  18.0895  18.0895  18.1613  18.1613
    18.3217  18.3217  18.3791  18.3791  18.4301  18.4301  18.4634  18.4917
    18.4918  18.5175  18.5175  18.6305  18.6305  18.7603  18.7603  18.7755
    18.8221  18.8221  19.0862  19.0862  19.3477  19.3477  19.4364  19.4540
    19.4560  19.4560  19.5259  19.5259  19.5642  19.5642  19.7922  19.7954
    19.7954  19.9936  19.9936  20.0502  20.0502  20.1359  20.1984  20.1984
    20.2502  20.2502  20.3064  20.3696  20.3696  20.4397  20.4397  20.6151
    20.6166  20.6432  20.6432  20.6854  20.7812  20.7839  20.7839  20.8325
    20.8488  20.8488  20.8610  20.9198  20.9690  20.9690  20.9840  20.9922
    20.9922  21.0798  21.1574  21.1575  21.2901  21.2901  21.4693  21.4731
    21.4731  21.5850  21.6126  21.6126  21.8533  21.8533  21.8987  21.8987
    21.9813  21.9813  21.9991  22.0624  22.0624  22.2803  22.3569  22.3618
    22.3805  22.3965  22.3965  22.4411  22.4411  22.7014  22.7014  22.7599
    22.8674  22.8816  22.8816  22.9278  22.9278  22.9569  22.9945  22.9945
    23.0874  23.0874  23.1472  23.2362  23.2362  23.5303  23.5303  23.7580
    23.7944  23.7944  23.8318  23.8318  24.0316  24.0316  24.0359  24.0454
    24.1050  24.1050  24.1073  24.1073  24.2642  24.3161  24.3161  24.3709
    24.4241  24.4371  24.7281  24.7689  24.7689  24.7915  24.7915  24.8447
    24.8832  24.8832  24.8852  24.8852  24.9630  24.9630  25.0592  25.0592
    25.0614  25.0614  25.0825  26.2345  26.6282  26.6282  27.0948  27.0948
    27.3357  27.3357  27.6990

          k = 0.1667 0.2778 0.3889 ( 30187 PWs)   bands (ev):

   -49.8720 -49.8467 -49.8243 -49.8053 -49.8045 -49.7885 -49.7752 -49.7657
   -49.7548 -49.7458 -49.7405 -49.7394 -49.7369 -49.7329 -49.7275 -49.7264
   -49.7244 -49.7221 -49.7165 -49.7139 -49.7129 -49.7042 -49.7019 -49.6980
   -49.6979 -49.6975 -49.6954 -49.6924 -49.6914 -49.6906 -49.6875 -49.6869
   -20.2384 -20.2301 -20.2075 -20.1729 -20.1675 -20.1656 -20.1572 -20.1535
   -20.1337 -20.1270 -20.1183 -20.1176 -20.1175 -20.1099 -20.0950 -20.0927
   -20.0885 -20.0845 -20.0701 -20.0689 -20.0676 -20.0593 -20.0581 -20.0317
   -20.0292 -20.0028 -19.9345 -19.8864 -19.8857 -19.8446 -19.8380 -19.8370
   -19.8365 -19.8153 -19.8039 -19.8000 -19.7913 -19.7709 -19.7336 -19.7335
   -19.7330 -19.7266 -19.7127 -19.6803 -19.6638 -19.6493 -19.6371 -19.6333
   -19.6319 -19.6249 -19.6243 -19.6229 -19.6193 -19.6082 -19.6067 -19.5997
   -19.5957 -19.5923 -19.5882 -19.5875 -19.5837 -19.5808 -19.5699 -19.5573
   -19.5449 -19.5417 -19.5412 -19.5301 -19.5296 -19.5223 -19.5158 -19.5124
   -19.5011 -19.5002 -19.4942 -19.4931 -19.4884 -19.4872 -19.4845 -19.4827
   -19.4823 -19.4742 -19.4732 -19.4493 -19.4393 -19.4378 -19.4151 -19.4132
   -19.3996 -19.3935 -19.3931 -19.3767 -19.3686 -19.3626 -19.3489 -19.3271
    16.1524  16.7843  17.3026  17.4093  17.4223  17.4243  17.4506  17.6279
    17.7009  17.7047  17.7117  17.7599  17.8125  17.8145  17.8363  17.8502
    17.8516  17.9031  17.9288  18.0078  18.0470  18.0690  18.0737  18.1421
    18.1738  18.2291  18.2436  18.2916  18.3019  18.3271  18.4179  18.4508
    18.4631  18.4887  18.5322  18.5454  18.5681  18.5762  18.6044  18.8317
    18.9694  19.0100  19.0756  19.0832  19.1131  19.1252  19.2851  19.3165
    19.3297  19.5097  19.5788  19.6035  19.6260  19.6311  19.7593  19.7984
    19.8059  19.8717  19.9025  20.0205  20.0701  20.1851  20.2080  20.3450
    20.3507  20.3607  20.3894  20.5334  20.5629  20.6349  20.6357  20.6441
    20.6919  20.7149  20.7468  20.7715  20.7830  20.7843  20.8294  20.8706
    20.8767  20.9283  20.9400  20.9549  21.0406  21.0640  21.0819  21.1061
    21.1363  21.1502  21.1627  21.1775  21.2615  21.3487  21.4001  21.4483
    21.4531  21.4908  21.5356  21.5673  21.5825  21.6404  21.6882  21.6954
    21.7506  21.8355  21.9622  22.0290  22.1034  22.1927  22.2157  22.3594
    22.3637  22.4562  22.4698  22.5281  22.5915  22.5965  22.6142  22.6283
    22.6514  22.6934  22.8269  22.8493  22.8786  22.9119  23.0007  23.0293
    23.0385  23.2504  23.2615  23.2793  23.3384  23.3887  23.6868  23.8196
    23.8732  23.9011  23.9050  23.9216  23.9695  23.9770  24.1148  24.1894
    24.2051  24.2309  24.2824  24.2999  24.2999  24.3203  24.3222  24.3417
    24.5038  24.5958  24.6144  24.6379  24.6409  24.6613  24.6711  24.7064
    24.7265  24.7624  24.9046  24.9133  24.9135  24.9463  24.9758  25.0081
    25.0175  25.5660  25.5719  26.0857  26.2595  26.5089  26.7645  27.0080
    27.3328  27.7067  27.8558

          k = 0.1667 0.2778-0.5000 ( 30158 PWs)   bands (ev):

   -49.8605 -49.8605 -49.8156 -49.8156 -49.7972 -49.7972 -49.7709 -49.7709
   -49.7507 -49.7507 -49.7382 -49.7382 -49.7370 -49.7370 -49.7253 -49.7253
   -49.7170 -49.7170 -49.7136 -49.7135 -49.7062 -49.7062 -49.7052 -49.7052
   -49.6994 -49.6994 -49.6939 -49.6939 -49.6919 -49.6919 -49.6872 -49.6872
   -20.2104 -20.2104 -20.1965 -20.1965 -20.1692 -20.1692 -20.1435 -20.1435
   -20.1409 -20.1409 -20.1153 -20.1153 -20.1104 -20.1104 -20.1045 -20.1045
   -20.0918 -20.0918 -20.0841 -20.0841 -20.0663 -20.0663 -20.0440 -20.0440
   -20.0314 -20.0314 -19.8925 -19.8925 -19.8858 -19.8858 -19.8265 -19.8265
   -19.8030 -19.8030 -19.7853 -19.7853 -19.7735 -19.7735 -19.7679 -19.7679
   -19.7569 -19.7569 -19.6538 -19.6538 -19.6500 -19.6500 -19.6349 -19.6349
   -19.6336 -19.6336 -19.6268 -19.6268 -19.6067 -19.6067 -19.6049 -19.6049
   -19.5761 -19.5761 -19.5760 -19.5760 -19.5687 -19.5687 -19.5602 -19.5602
   -19.5568 -19.5568 -19.5564 -19.5564 -19.5518 -19.5518 -19.5281 -19.5280
   -19.4965 -19.4965 -19.4936 -19.4936 -19.4894 -19.4893 -19.4743 -19.4743
   -19.4691 -19.4691 -19.4603 -19.4602 -19.4600 -19.4600 -19.4067 -19.4067
   -19.4003 -19.4003 -19.3691 -19.3691 -19.3690 -19.3690 -19.3414 -19.3414
    16.4442  16.4442  17.4916  17.4916  17.5379  17.5379  17.5883  17.5883
    17.6091  17.6091  17.6595  17.6595  17.7153  17.7153  17.8660  17.8660
    17.9954  17.9954  18.0076  18.0076  18.0678  18.0678  18.1407  18.1407
    18.1690  18.1690  18.2188  18.2188  18.2204  18.2204  18.2543  18.2543
    18.4545  18.4545  18.4818  18.4818  18.6231  18.6231  18.8086  18.8086
    18.9421  18.9421  19.1240  19.1240  19.1422  19.1422  19.2104  19.2104
    19.2873  19.2873  19.6367  19.6367  19.7013  19.7013  19.7449  19.7449
    19.8070  19.8070  19.9908  19.9908  20.0102  20.0102  20.3571  20.3571
    20.4129  20.4129  20.5683  20.5683  20.6287  20.6287  20.6314  20.6314
    20.7503  20.7503  20.7683  20.7683  20.8586  20.8586  20.8908  20.8908
    20.9500  20.9500  21.0478  21.0478  21.0571  21.0571  21.0824  21.0824
    21.1561  21.1561  21.2882  21.2882  21.3540  21.3540  21.3883  21.3883
    21.4161  21.4161  21.4320  21.4320  21.4452  21.4452  21.4802  21.4802
    21.9941  21.9941  22.0705  22.0705  22.0980  22.0980  22.3212  22.3212
    22.4199  22.4199  22.4259  22.4259  22.4650  22.4650  22.4685  22.4685
    22.6680  22.6681  22.7235  22.7235  22.8970  22.8970  22.9827  22.9827
    23.1721  23.1721  23.5641  23.5641  23.5833  23.5833  23.6168  23.6168
    23.6783  23.6783  23.9624  23.9624  24.0446  24.0446  24.1416  24.1416
    24.2109  24.2109  24.4029  24.4029  24.4476  24.4476  24.4807  24.4807
    24.4823  24.4823  24.5314  24.5314  24.5504  24.5504  24.5636  24.5636
    24.7110  24.7110  24.7953  24.7953  24.9550  24.9550  24.9583  24.9583
    25.5322  25.5322  26.1712  26.1712  26.2769  26.2769  26.3720  26.3720
    27.5444  27.5444  28.5227

          k = 0.1667 0.3889 0.3889 ( 30150 PWs)   bands (ev):

   -49.8634 -49.8392 -49.8392 -49.8182 -49.7992 -49.7844 -49.7844 -49.7728
   -49.7520 -49.7442 -49.7442 -49.7397 -49.7255 -49.7255 -49.7199 -49.7199
   -49.7195 -49.7195 -49.7153 -49.7153 -49.7082 -49.7082 -49.7011 -49.7011
   -49.7006 -49.7006 -49.6989 -49.6989 -49.6947 -49.6894 -49.6894 -49.6875
   -20.2173 -20.2173 -20.1758 -20.1604 -20.1604 -20.1543 -20.1543 -20.1480
   -20.1425 -20.1425 -20.1193 -20.1193 -20.1115 -20.1115 -20.0985 -20.0985
[...]
   -19.5020 -19.5020 -19.5020 -19.5020 -19.4859 -19.4859 -19.4859 -19.4859
   -19.3762 -19.3762 -19.3762 -19.3762 -19.3579 -19.3579 -19.3579 -19.3579
   -19.3557 -19.3557 -19.3557 -19.3557 -19.3130 -19.3130 -19.3130 -19.3130
    16.9792  16.9792  16.9792  16.9792  17.4499  17.4499  17.4499  17.4500
    17.9073  17.9074  17.9074  17.9074  17.9545  17.9545  17.9545  17.9545
    17.9545  17.9545  17.9545  17.9545  18.0364  18.0364  18.0364  18.0364
    18.2296  18.2296  18.2296  18.2296  18.2296  18.2296  18.2296  18.2296
    18.6255  18.6255  18.6255  18.6255  18.6255  18.6255  18.6255  18.6255
    18.7872  18.7872  18.7872  18.7872  19.3556  19.3556  19.3556  19.3556
    19.3556  19.3556  19.3556  19.3556  19.5366  19.5366  19.5366  19.5366
    20.0802  20.0802  20.0802  20.0802  20.5613  20.5613  20.5613  20.5613
    20.8155  20.8155  20.8155  20.8155  20.8933  20.8933  20.8933  20.8933
    20.9329  20.9329  20.9329  20.9329  20.9330  20.9330  20.9330  20.9330
    21.0554  21.0554  21.0554  21.0554  21.0810  21.0810  21.0810  21.0810
    21.1317  21.1317  21.1317  21.1317  21.3481  21.3481  21.3481  21.3481
    21.3481  21.3481  21.3481  21.3481  21.4886  21.4886  21.4886  21.4886
    21.8235  21.8235  21.8235  21.8235  22.0135  22.0135  22.0135  22.0135
    22.0135  22.0135  22.0135  22.0135  22.6437  22.6437  22.6437  22.6437
    22.9103  22.9103  22.9103  22.9103  22.9613  22.9613  22.9613  22.9613
    22.9613  22.9613  22.9613  22.9613  23.3503  23.3503  23.3503  23.3503
    23.3654  23.3654  23.3654  23.3654  23.7898  23.7898  23.7898  23.7898
    24.7964  24.7964  24.7964  24.7964  24.7964  24.7964  24.7964  24.7964
    24.8341  24.8341  24.8341  24.8341  24.8607  24.8607  24.8607  24.8607
    24.8607  24.8607  24.8607  24.8607  24.9101  24.9101  24.9101  24.9101
    26.4982  26.4982  26.4982  26.4982  27.7918  27.7918  27.7918  27.7918
    27.7918  27.7918  27.7918

          k = 0.3891 0.3891 0.3891 ( 30127 PWs)   bands (ev):

   -49.8168 -49.7944 -49.7944 -49.7944 -49.7753 -49.7753 -49.7753 -49.7594
   -49.6894 -49.6894 -49.6894 -49.6858 -49.6858 -49.6858 -49.6858 -49.6858
   -49.6858 -49.6856 -49.6856 -49.6856 -49.6699 -49.6699 -49.6699 -49.6668
   -49.6668 -49.6668 -49.6666 -49.6666 -49.6666 -49.6666 -49.6666 -49.6666
   -20.1512 -20.1512 -20.1512 -20.1145 -20.1145 -20.1145 -20.1038 -20.1038
   -20.1038 -20.0990 -20.0990 -20.0990 -20.0990 -20.0990 -20.0990 -20.0946
   -20.0946 -20.0946 -20.0946 -20.0946 -20.0946 -20.0678 -20.0678 -20.0678
   -19.9578 -19.8456 -19.8456 -19.8456 -19.7373 -19.7373 -19.7373 -19.7373
   -19.7373 -19.7373 -19.7315 -19.7315 -19.7315 -19.7291 -19.7291 -19.7291
   -19.7051 -19.7051 -19.7051 -19.6306 -19.6306 -19.6306 -19.6306 -19.6306
   -19.6306 -19.6131 -19.6131 -19.6131 -19.6124 -19.6006 -19.6006 -19.6006
   -19.5619 -19.5619 -19.5619 -19.5434 -19.5434 -19.5434 -19.5434 -19.5434
   -19.5434 -19.5254 -19.5254 -19.5254 -19.5092 -19.5092 -19.5092 -19.5045
   -19.5045 -19.5045 -19.5045 -19.5045 -19.5045 -19.4832 -19.4832 -19.4832
   -19.3814 -19.3814 -19.3814 -19.3623 -19.3623 -19.3530 -19.3530 -19.3530
   -19.3365 -19.3365 -19.3365 -19.3328 -19.3328 -19.3328 -19.3158 -19.3158
    16.6842  17.1427  17.1427  17.1427  17.3808  17.3915  17.3915  17.3915
    17.7464  17.7464  17.7464  17.9689  17.9689  17.9689  18.0488  18.0488
    18.0488  18.0614  18.0614  18.0614  18.0614  18.0614  18.0614  18.1509
    18.1509  18.1509  18.1509  18.1509  18.1509  18.1805  18.1805  18.1805
    18.4352  18.4352  18.4352  18.8082  18.8082  18.8082  18.9118  18.9118
    18.9118  18.9118  18.9118  18.9118  19.2677  19.2677  19.2677  19.2768
    19.2768  19.2768  19.2768  19.2768  19.2768  19.5791  19.5791  19.5791
    20.1024  20.1024  20.1024  20.1907  20.3779  20.3779  20.3779  20.7943
    20.7943  20.7943  20.7943  20.7943  20.7943  20.8957  20.8957  20.9901
    20.9901  20.9901  21.0392  21.0392  21.0397  21.0397  21.0397  21.0564
    21.0564  21.0564  21.0682  21.0682  21.0682  21.0730  21.1026  21.1026
    21.1026  21.1384  21.1384  21.1384  21.1384  21.1384  21.1384  21.1448
    21.1448  21.1448  21.2484  21.2484  21.2484  21.6683  21.6683  21.6683
    21.8747  21.8747  21.8747  22.1932  22.1932  22.1932  22.1932  22.1932
    22.1932  22.1945  22.1945  22.1945  22.5314  22.5314  22.5314  22.7192
    22.7192  22.7192  22.7192  22.7192  22.7192  22.8346  22.8346  22.8346
    22.9267  22.9267  22.9632  22.9632  22.9632  23.1173  23.1173  23.1173
    23.3977  23.3977  23.3977  23.6299  23.6299  23.7969  23.7969  23.7969
    24.7488  24.7488  24.7488  24.8024  24.8024  24.8024  24.8024  24.8024
    24.8024  24.8709  24.8709  24.8709  24.8709  24.8709  24.8709  24.9371
    24.9371  24.9371  24.9533  24.9533  24.9533  25.0469  25.0469  25.0469
    26.7140  26.7140  26.7140  27.6196  27.6196  27.6196  27.6196  27.6196
    27.6196  27.8990  27.8990

          k = 0.3891 0.3891-0.5002 ( 30136 PWs)   bands (ev):

   -49.8066 -49.8066 -49.7857 -49.7857 -49.7857 -49.7857 -49.7680 -49.7680
   -49.6877 -49.6877 -49.6877 -49.6877 -49.6857 -49.6857 -49.6857 -49.6857
   -49.6771 -49.6771 -49.6771 -49.6771 -49.6754 -49.6754 -49.6754 -49.6754
   -49.6681 -49.6681 -49.6681 -49.6681 -49.6667 -49.6667 -49.6667 -49.6667
   -20.1381 -20.1381 -20.1262 -20.1262 -20.1262 -20.1262 -20.1045 -20.1045
   -20.1045 -20.1045 -20.1011 -20.1011 -20.1011 -20.1011 -20.0992 -20.0992
   -20.0992 -20.0992 -20.0893 -20.0893 -20.0837 -20.0837 -20.0837 -20.0837
   -19.9020 -19.9020 -19.7882 -19.7882 -19.7882 -19.7882 -19.7354 -19.7354
   -19.7354 -19.7354 -19.7223 -19.7223 -19.7223 -19.7223 -19.6840 -19.6840
   -19.6840 -19.6840 -19.6707 -19.6707 -19.6637 -19.6637 -19.6613 -19.6613
   -19.6202 -19.6202 -19.6202 -19.6202 -19.6138 -19.6138 -19.6138 -19.6138
   -19.5516 -19.5516 -19.5516 -19.5516 -19.5453 -19.5453 -19.5259 -19.5259
   -19.5259 -19.5259 -19.5252 -19.5252 -19.5252 -19.5252 -19.5153 -19.5153
   -19.5153 -19.5153 -19.4973 -19.4973 -19.4946 -19.4946 -19.4946 -19.4946
   -19.3675 -19.3675 -19.3627 -19.3627 -19.3627 -19.3627 -19.3483 -19.3483
   -19.3332 -19.3332 -19.3332 -19.3332 -19.3328 -19.3328 -19.3198 -19.3198
    16.8977  16.8977  17.2575  17.2575  17.2575  17.2575  17.3738  17.3738
    17.8625  17.8626  17.8814  17.8814  17.8814  17.8814  18.0437  18.0437
    18.0437  18.0437  18.0885  18.0885  18.0885  18.0885  18.1056  18.1056
    18.1056  18.1056  18.1226  18.1226  18.1226  18.1226  18.1353  18.1353
    18.5994  18.5994  18.6745  18.6745  18.6745  18.6745  19.0546  19.0546
    19.0546  19.0546  19.0662  19.0662  19.0662  19.0662  19.1025  19.1025
    19.1025  19.1025  19.3939  19.3939  19.4485  19.4485  19.4485  19.4485
    20.1684  20.1684  20.2531  20.2531  20.2531  20.2531  20.7267  20.7267
    20.9349  20.9349  20.9349  20.9349  20.9571  20.9571  20.9589  20.9589
    20.9589  20.9589  20.9607  20.9607  21.0100  21.0100  21.0100  21.0100
    21.0234  21.0234  21.0234  21.0234  21.0596  21.0596  21.0616  21.0616
    21.0776  21.0776  21.0956  21.0956  21.0956  21.0956  21.0957  21.0957
    21.0957  21.0957  21.5155  21.5155  21.5155  21.5155  21.5652  21.5652
    21.8971  21.8971  21.8971  21.8971  21.9237  21.9237  22.3368  22.3368
    22.3368  22.3368  22.4305  22.4305  22.4305  22.4305  22.4603  22.4603
    22.4603  22.4603  22.8246  22.8246  22.8367  22.8367  22.9019  22.9019
    22.9019  22.9019  22.9300  22.9300  22.9300  22.9300  23.1492  23.1492
    23.2969  23.2969  23.5228  23.5228  23.5228  23.5228  23.6846  23.6846
    24.8375  24.8375  24.8375  24.8375  24.8692  24.8692  24.8692  24.8692
    24.8726  24.8726  24.9204  24.9204  24.9204  24.9204  24.9267  24.9267
    24.9267  24.9267  24.9791  24.9791  24.9791  24.9791  25.0281  25.0281
    27.1434  27.1434  27.1434  27.1434  27.5961  27.5961  27.7435  27.7435
    27.7435  27.7435  28.5326

          k = 0.3891-0.5002-0.5002 ( 30116 PWs)   bands (ev):

   -49.7970 -49.7970 -49.7970 -49.7970 -49.7776 -49.7776 -49.7776 -49.7776
   -49.6868 -49.6868 -49.6868 -49.6868 -49.6763 -49.6763 -49.6763 -49.6763
   -49.6763 -49.6763 -49.6763 -49.6763 -49.6761 -49.6761 -49.6761 -49.6761
   -49.6761 -49.6761 -49.6761 -49.6761 -49.6674 -49.6674 -49.6674 -49.6674
   -20.1203 -20.1203 -20.1203 -20.1203 -20.1203 -20.1203 -20.1203 -20.1203
   -20.1055 -20.1055 -20.1055 -20.1055 -20.1016 -20.1016 -20.1016 -20.1016
   -20.0953 -20.0953 -20.0953 -20.0953 -20.0953 -20.0953 -20.0953 -20.0953
   -19.8451 -19.8451 -19.8451 -19.8451 -19.7308 -19.7308 -19.7308 -19.7308
   -19.7286 -19.7286 -19.7286 -19.7286 -19.6740 -19.6740 -19.6740 -19.6740
   -19.6740 -19.6740 -19.6740 -19.6740 -19.6725 -19.6725 -19.6725 -19.6725
   -19.6725 -19.6725 -19.6725 -19.6725 -19.6153 -19.6153 -19.6153 -19.6153
   -19.5372 -19.5372 -19.5372 -19.5372 -19.5351 -19.5351 -19.5351 -19.5351
   -19.5351 -19.5351 -19.5351 -19.5351 -19.5114 -19.5114 -19.5114 -19.5114
   -19.5114 -19.5114 -19.5114 -19.5114 -19.5054 -19.5054 -19.5054 -19.5054
   -19.3565 -19.3565 -19.3565 -19.3565 -19.3437 -19.3437 -19.3437 -19.3437
   -19.3436 -19.3436 -19.3436 -19.3436 -19.3244 -19.3244 -19.3244 -19.3244
    17.0654  17.0654  17.0654  17.0654  17.3059  17.3059  17.3059  17.3059
    17.9724  17.9724  17.9724  17.9724  17.9724  17.9724  17.9724  17.9724
    17.9732  17.9732  17.9732  17.9732  18.0527  18.0527  18.0527  18.0527
    18.1169  18.1169  18.1169  18.1169  18.1169  18.1169  18.1169  18.1169
    18.8396  18.8396  18.8396  18.8396  18.8396  18.8396  18.8396  18.8396
    18.8977  18.8977  18.8977  18.8977  19.2470  19.2470  19.2470  19.2470
    19.2470  19.2470  19.2470  19.2470  19.2743  19.2743  19.2743  19.2743
    20.2304  20.2304  20.2304  20.2304  20.5041  20.5041  20.5041  20.5041
    20.9617  20.9617  20.9617  20.9617  20.9825  20.9825  20.9825  20.9825
    21.0061  21.0061  21.0061  21.0061  21.0061  21.0061  21.0061  21.0061
    21.0211  21.0211  21.0211  21.0211  21.0558  21.0558  21.0558  21.0558
    21.0656  21.0656  21.0656  21.0656  21.2616  21.2616  21.2616  21.2616
    21.2617  21.2617  21.2617  21.2617  21.3203  21.3203  21.3203  21.3203
    22.0783  22.0783  22.0783  22.0783  22.1594  22.1594  22.1594  22.1594
    22.1594  22.1594  22.1595  22.1595  22.6199  22.6199  22.6199  22.6199
    22.6199  22.6199  22.6199  22.6199  22.6363  22.6363  22.6363  22.6363
    22.9005  22.9005  22.9005  22.9005  23.1911  23.1911  23.1911  23.1911
    23.2657  23.2657  23.2657  23.2657  23.4876  23.4876  23.4876  23.4876
    24.9133  24.9133  24.9133  24.9133  24.9133  24.9133  24.9133  24.9133
    24.9350  24.9350  24.9350  24.9350  24.9808  24.9808  24.9808  24.9808
    24.9808  24.9808  24.9808  24.9808  24.9819  24.9819  24.9819  24.9819
    27.4130  27.4130  27.4130  27.4130  28.0526  28.0526  28.0526  28.0526
    28.0526  28.0526  28.0526

          k =-0.5002-0.5002-0.5002 ( 29992 PWs)   bands (ev):

   -49.7882 -49.7882 -49.7882 -49.7882 -49.7882 -49.7882 -49.7882 -49.7882
   -49.6762 -49.6762 -49.6762 -49.6762 -49.6762 -49.6762 -49.6762 -49.6762
   -49.6762 -49.6762 -49.6762 -49.6762 -49.6762 -49.6762 -49.6762 -49.6762
   -49.6762 -49.6762 -49.6762 -49.6762 -49.6762 -49.6762 -49.6762 -49.6762
   -20.1079 -20.1079 -20.1079 -20.1079 -20.1079 -20.1079 -20.1079 -20.1079
   -20.1079 -20.1079 -20.1079 -20.1079 -20.1079 -20.1079 -20.1079 -20.1079
   -20.1079 -20.1079 -20.1079 -20.1079 -20.1079 -20.1079 -20.1079 -20.1079
   -19.7864 -19.7864 -19.7864 -19.7864 -19.7864 -19.7864 -19.7864 -19.7864
   -19.6736 -19.6736 -19.6736 -19.6736 -19.6736 -19.6736 -19.6736 -19.6736
   -19.6736 -19.6736 -19.6736 -19.6736 -19.6736 -19.6736 -19.6736 -19.6736
   -19.6736 -19.6736 -19.6736 -19.6736 -19.6736 -19.6736 -19.6736 -19.6736
   -19.5227 -19.5227 -19.5227 -19.5227 -19.5227 -19.5227 -19.5227 -19.5227
   -19.5227 -19.5227 -19.5227 -19.5227 -19.5227 -19.5227 -19.5227 -19.5227
   -19.5227 -19.5227 -19.5227 -19.5227 -19.5227 -19.5227 -19.5227 -19.5227
   -19.3391 -19.3391 -19.3391 -19.3391 -19.3391 -19.3391 -19.3391 -19.3391
   -19.3391 -19.3391 -19.3391 -19.3391 -19.3391 -19.3391 -19.3391 -19.3391
    17.1758  17.1758  17.1758  17.1758  17.1758  17.1758  17.1758  17.1758
    18.0278  18.0278  18.0278  18.0278  18.0278  18.0278  18.0278  18.0278
    18.0278  18.0278  18.0278  18.0278  18.0278  18.0278  18.0278  18.0278
    18.0278  18.0278  18.0278  18.0278  18.0278  18.0278  18.0278  18.0278
    19.0591  19.0591  19.0591  19.0591  19.0591  19.0591  19.0591  19.0591
    19.0591  19.0591  19.0591  19.0591  19.0592  19.0592  19.0592  19.0592
    19.0592  19.0592  19.0592  19.0592  19.0592  19.0592  19.0592  19.0592
    20.3856  20.3856  20.3856  20.3856  20.3856  20.3856  20.3856  20.3856
    21.0259  21.0259  21.0259  21.0259  21.0259  21.0259  21.0259  21.0259
    21.0259  21.0259  21.0259  21.0259  21.0259  21.0259  21.0259  21.0259
    21.1367  21.1367  21.1367  21.1367  21.1367  21.1367  21.1367  21.1367
    21.1367  21.1367  21.1367  21.1367  21.1367  21.1367  21.1367  21.1367
    21.1367  21.1367  21.1367  21.1367  21.1367  21.1367  21.1367  21.1367
    22.3531  22.3531  22.3531  22.3531  22.3531  22.3531  22.3531  22.3531
    22.3531  22.3531  22.3531  22.3531  22.3531  22.3531  22.3531  22.3531
    22.3531  22.3531  22.3531  22.3531  22.3531  22.3531  22.3531  22.3531
    23.1869  23.1869  23.1869  23.1869  23.1869  23.1869  23.1869  23.1869
    23.1869  23.1869  23.1869  23.1869  23.1869  23.1869  23.1869  23.1869
    24.9888  24.9888  24.9888  24.9888  24.9888  24.9888  24.9888  24.9888
    24.9888  24.9888  24.9888  24.9888  24.9888  24.9888  24.9888  24.9888
    24.9888  24.9888  24.9888  24.9888  24.9888  24.9888  24.9888  24.9888
    28.3736  28.3736  28.3737  28.3737  28.3737  28.3737  28.3737  28.3737
    28.3737  28.3737  28.3737

     the Fermi energy is    23.1541 ev

!    total energy              =  -13813.30074255 Ry

     total all-electron energy =   -289989.691082 Ry
     estimated scf accuracy    <          7.7E-11 Ry
     smearing contrib. (-TS)   =       0.02054521 Ry
     internal energy E=F+TS    =  -13813.32128775 Ry

     The total energy is F=E-TS. E is the sum of the following terms:
     one-electron contribution =    -991.99383814 Ry
     hartree contribution      =     914.95467705 Ry
     xc contribution           =    -928.12015482 Ry
     ewald contribution        =   -5218.71772682 Ry
     one-center paw contrib.   =   -7589.44424503 Ry

     convergence has been achieved in  17 iterations

     Forces acting on atoms (cartesian axes, Ry/au):

     atom    1 type  1   force =     0.00000000    0.00000000    0.00000000
     atom    2 type  1   force =     0.00000103    0.00000103    0.00000000
     atom    3 type  1   force =     0.00000103    0.00000000    0.00000103
     atom    4 type  1   force =    -0.00000000    0.00000103    0.00000103
     atom    5 type  1   force =     0.00000000    0.00000000    0.00000000
     atom    6 type  1   force =     0.00000062    0.00000062    0.00000000
     atom    7 type  1   force =     0.00000103    0.00000000   -0.00000103
     atom    8 type  1   force =    -0.00000000    0.00000103   -0.00000103
     atom    9 type  1   force =     0.00000000    0.00000000    0.00000000
     atom   10 type  1   force =     0.00000103   -0.00000103    0.00000000
     atom   11 type  1   force =     0.00000062   -0.00000000    0.00000062
     atom   12 type  1   force =     0.00000000   -0.00000103    0.00000103
     atom   13 type  1   force =     0.00000000    0.00000000    0.00000000
     atom   14 type  1   force =     0.00000062   -0.00000062    0.00000000
     atom   15 type  1   force =     0.00000062    0.00000000   -0.00000062
     atom   16 type  1   force =     0.00000000   -0.00000103   -0.00000103
     atom   17 type  1   force =     0.00000000    0.00000000    0.00000000
     atom   18 type  1   force =    -0.00000103    0.00000103    0.00000000
     atom   19 type  1   force =    -0.00000103   -0.00000000    0.00000103
     atom   20 type  1   force =     0.00000000    0.00000062    0.00000062
     atom   21 type  1   force =     0.00000000    0.00000000    0.00000000
     atom   22 type  1   force =    -0.00000062    0.00000062    0.00000000
     atom   23 type  1   force =    -0.00000103    0.00000000   -0.00000103
     atom   24 type  1   force =     0.00000000    0.00000062   -0.00000062
     atom   25 type  1   force =     0.00000000    0.00000000    0.00000000
     atom   26 type  1   force =    -0.00000103   -0.00000103    0.00000000
     atom   27 type  1   force =    -0.00000062    0.00000000    0.00000062
     atom   28 type  1   force =    -0.00000000   -0.00000062    0.00000062
     atom   29 type  1   force =     0.00000000    0.00000000    0.00000000
     atom   30 type  1   force =    -0.00000062   -0.00000062    0.00000000
     atom   31 type  1   force =    -0.00000062   -0.00000000   -0.00000062
     atom   32 type  1   force =    -0.00000000   -0.00000062   -0.00000062

     Total force =     0.000006     Total SCF correction =     0.000050
     SCF correction compared to forces is large: reduce conv_thr to get better values


     Computing stress (Cartesian axis) and pressure

          total   stress  (Ry/bohr**3)                   (kbar)     P=       -0.04
  -0.00000030   0.00000000   0.00000000           -0.04        0.00        0.00
   0.00000000  -0.00000030   0.00000000            0.00       -0.04        0.00
   0.00000000   0.00000000  -0.00000030            0.00        0.00       -0.04


     Writing output data file /scratch/rurelax.save/
 
     init_run     :     19.26s CPU     19.91s WALL (       2 calls)
     electrons    :   2045.97s CPU   2072.80s WALL (       4 calls)
     update_pot   :      0.88s CPU      0.91s WALL (       2 calls)
     forces       :     20.64s CPU     20.87s WALL (       4 calls)
     stress       :    123.91s CPU    124.91s WALL (       4 calls)

     Called by init_run:
     wfcinit      :     17.88s CPU     18.36s WALL (       2 calls)
     potinit      :      0.36s CPU      0.39s WALL (       2 calls)
     hinit0       :      0.63s CPU      0.65s WALL (       2 calls)

     Called by electrons:
     c_bands      :   1796.72s CPU   1817.86s WALL (      69 calls)
     sum_band     :    240.64s CPU    245.04s WALL (      69 calls)
     v_of_rho     :      0.97s CPU      1.06s WALL (      72 calls)
     newd         :      1.61s CPU      2.28s WALL (      72 calls)
     PAW_pot      :      6.12s CPU      6.50s WALL (      74 calls)
     mix_rho      :      0.33s CPU      0.37s WALL (      69 calls)

     Called by c_bands:
     init_us_2    :      9.86s CPU     10.03s WALL (    5250 calls)
     cegterg      :   1759.87s CPU   1780.27s WALL (    2415 calls)

     Called by *egterg:
     cdiaghg      :    194.33s CPU    195.65s WALL (    7629 calls)
     h_psi        :    998.24s CPU   1013.33s WALL (    7804 calls)
     s_psi        :     80.09s CPU     80.66s WALL (    7804 calls)
     g_psi        :      2.26s CPU      2.29s WALL (    5319 calls)

     Called by h_psi:
     h_psi:calbec :    146.92s CPU    148.00s WALL (    7804 calls)
     vloc_psi     :    769.80s CPU    782.23s WALL (    7804 calls)
     add_vuspsi   :     76.23s CPU     77.76s WALL (    7804 calls)

     General routines
     calbec       :    235.89s CPU    237.65s WALL (   10989 calls)
     fft          :      1.06s CPU      1.11s WALL (    1031 calls)
     ffts         :      0.10s CPU      0.11s WALL (     141 calls)
     fftw         :    897.24s CPU    911.78s WALL ( 4295703 calls)
     interpolate  :      0.14s CPU      0.16s WALL (      72 calls)
 
     Parallel routines
     fft_scatt_xy :     75.54s CPU     76.73s WALL ( 4296875 calls)
     fft_scatt_yz :    694.86s CPU    706.31s WALL ( 4296875 calls)
 
     PWSCF        :  37m 1.80s CPU  37m32.54s WALL

 
   This run was terminated on:   8:57:35   7Mar2022            

=------------------------------------------------------------------------------=
   JOB DONE.
=------------------------------------------------------------------------------=
