
     Program PWSCF v.6.7MaX starts on  7Dec2021 at  9:56:47 

     This program is part of the open-source Quantum ESPRESSO suite
     for quantum simulation of materials; please cite
         "P. Giannozzi et al., J. Phys.:Condens. Matter 21 395502 (2009);
         "P. Giannozzi et al., J. Phys.:Condens. Matter 29 465901 (2017);
          URL http://www.quantum-espresso.org", 
     in publications or presentations arising from this work. More details at
     http://www.quantum-espresso.org/quote

     Parallel version (MPI & OpenMP), running on      72 processor cores
     Number of MPI processes:                72
     Threads/MPI process:                     1

     MPI processes distributed on     1 nodes
     R & G space division:  proc/nbgrp/npool/nimage =      72
     Reading input from relax.in

     Current dimensions of program PWSCF are:
     Max number of different atomic species (ntypx) = 10
     Max number of k-points (npk) =  40000
     Max angular momentum in pseudopotentials (lmaxx) =  3
     file Ru.pbe-spn-kjpaw_psl.1.0.0.UPF: wavefunction(s)  4D renormalized

     Subspace diagonalization in iterative solution of the eigenvalue problem:
     one sub-group per band group will be used
     ELPA distributed-memory algorithm (size of sub-group:  8*  8 procs)

     Found symmetry operation: I + (  0.0000  0.0000  0.5000)
     This is a supercell, fractional translations are disabled
 
     Parallelization info
     --------------------
     sticks:   dense  smooth     PW     G-vecs:    dense   smooth      PW
     Min          43      28      8                 3067     1642     253
     Max          44      29     10                 3073     1653     261
     Sum        3103    2053    595               221057   118587   18485
 


     bravais-lattice index     =            4
     lattice parameter (alat)  =      10.2300  a.u.
     unit-cell volume          =    1467.0549 (a.u.)^3
     number of atoms/cell      =           16
     number of atomic types    =            1
     number of electrons       =       256.00
     number of Kohn-Sham states=          154
     kinetic-energy cutoff     =      71.0000  Ry
     charge density cutoff     =     430.0000  Ry
     scf convergence threshold =      1.0E-06
     mixing beta               =       0.1000
     number of iterations used =           10  plain     mixing
     energy convergence thresh.=      1.0E-04
     force convergence thresh. =      1.0E-03
     press convergence thresh. =      5.0E-01
     Exchange-correlation= SLA  PW   PBX  PBC
                           (   1   4   3   4   0   0   0)
     nstep                     =           60


     celldm(1)=  10.230000  celldm(2)=   0.000000  celldm(3)=   1.582300
     celldm(4)=   0.000000  celldm(5)=   0.000000  celldm(6)=   0.000000

     crystal axes: (cart. coord. in units of alat)
               a(1) = (   1.000000   0.000000   0.000000 )  
               a(2) = (  -0.500000   0.866025   0.000000 )  
               a(3) = (   0.000000   0.000000   1.582300 )  

     reciprocal axes: (cart. coord. in units 2 pi/alat)
               b(1) = (  1.000000  0.577350  0.000000 )  
               b(2) = (  0.000000  1.154701  0.000000 )  
               b(3) = (  0.000000  0.000000  0.631991 )  


     PseudoPot. # 1 for Ru read from file:
     /rds/homes/b/bxp912/pp/Ru.pbe-spn-kjpaw_psl.1.0.0.UPF
     MD5 check sum: 0ae1f594dea09af7be8575c3a481d1ae
     Pseudo is Projector augmented-wave + core cor, Zval = 16.0
     Generated using "atomic" code by A. Dal Corso  v.5.1
     Shape of augmentation charge: PSQ
     Using radial grid of 1233 points,  6 beta functions with: 
                l(1) =   0
                l(2) =   0
                l(3) =   1
                l(4) =   1
                l(5) =   2
                l(6) =   2
     Q(r) pseudized with 0 coefficients 


     atomic species   valence    mass     pseudopotential
        Ru            16.00   101.07000     Ru( 1.00)

      4 Sym. Ops., with inversion, found



   Cartesian axes

     site n.     atom                  positions (alat units)
         1           Ru  tau(   1) = (   0.1250001   0.0721688   0.1977875  )
         2           Ru  tau(   2) = (   0.1249999   0.3608439   0.5933625  )
         3           Ru  tau(   3) = (   0.1250001   0.0721688   0.9889375  )
         4           Ru  tau(   4) = (   0.1249999   0.3608439   1.3845125  )
         5           Ru  tau(   5) = (  -0.1250000   0.5051815   0.1977875  )
         6           Ru  tau(   6) = (  -0.1250000   0.7938566   0.5933625  )
         7           Ru  tau(   7) = (  -0.1250000   0.5051815   0.9889375  )
         8           Ru  tau(   8) = (  -0.1250000   0.7938566   1.3845125  )
         9           Ru  tau(   9) = (   0.6250000   0.0721688   0.1977875  )
        10           Ru  tau(  10) = (   0.6250000   0.3608439   0.5933625  )
        11           Ru  tau(  11) = (   0.6250000   0.0721688   0.9889375  )
        12           Ru  tau(  12) = (   0.6250000   0.3608439   1.3845125  )
        13           Ru  tau(  13) = (   0.3750000   0.5051815   0.1977875  )
        14           Ru  tau(  14) = (   0.3750000   0.7938566   0.5933625  )
        15           Ru  tau(  15) = (   0.3750000   0.5051815   0.9889375  )
        16           Ru  tau(  16) = (   0.3750000   0.7938566   1.3845125  )

     number of k points=   378  Marzari-Vanderbilt smearing, width (Ry)=  0.0400

     Number of k-points >= 100: set verbosity='high' to print them.

     Dense  grid:   221057 G-vectors     FFT dimensions: (  72,  72, 108)

     Smooth grid:   118587 G-vectors     FFT dimensions: (  60,  60,  90)

     Estimated max dynamical RAM per process >     199.92 MB

     Estimated total dynamical RAM >      14.06 GB

     Check: negative core charge=   -0.000002

     Initial potential from superposition of free atoms

     starting charge  255.98980, renormalised to  256.00000
     Starting wfcs are  160 randomized atomic wfcs
     Checking if some PAW data can be deallocated... 

     total cpu time spent up to now is       35.0 secs

     Self-consistent Calculation

     iteration #  1     ecut=    71.00 Ry     beta= 0.10
     Davidson diagonalization with overlap
     ethr =  1.00E-02,  avg # of iterations =  3.7

     Threshold (ethr) on eigenvalues was too large:
     Diagonalizing with lowered threshold

     Davidson diagonalization with overlap
     ethr =  9.86E-05,  avg # of iterations =  4.7

     total cpu time spent up to now is      284.5 secs

     total energy              =   -6906.84631392 Ry
     estimated scf accuracy    <       0.34392005 Ry

     iteration #  2     ecut=    71.00 Ry     beta= 0.10
     Davidson diagonalization with overlap
     ethr =  1.34E-04,  avg # of iterations =  1.0

     total cpu time spent up to now is      365.9 secs

     total energy              =   -6906.73712568 Ry
     estimated scf accuracy    <       0.21858817 Ry

     iteration #  3     ecut=    71.00 Ry     beta= 0.10
     Davidson diagonalization with overlap
     ethr =  8.54E-05,  avg # of iterations =  2.1

     total cpu time spent up to now is      477.7 secs

     total energy              =   -6906.78212548 Ry
     estimated scf accuracy    <       0.06312329 Ry

     iteration #  4     ecut=    71.00 Ry     beta= 0.10
     Davidson diagonalization with overlap
     ethr =  2.47E-05,  avg # of iterations =  1.1

     total cpu time spent up to now is      568.9 secs

     total energy              =   -6906.78389172 Ry
     estimated scf accuracy    <       0.00583726 Ry

     iteration #  5     ecut=    71.00 Ry     beta= 0.10
     Davidson diagonalization with overlap
     ethr =  2.28E-06,  avg # of iterations =  2.5

     total cpu time spent up to now is      668.9 secs

     total energy              =   -6906.78429713 Ry
     estimated scf accuracy    <       0.00365608 Ry

     iteration #  6     ecut=    71.00 Ry     beta= 0.10
     Davidson diagonalization with overlap
     ethr =  1.43E-06,  avg # of iterations =  3.2

     total cpu time spent up to now is      800.1 secs

     total energy              =   -6906.78339400 Ry
     estimated scf accuracy    <       0.00650230 Ry

     iteration #  7     ecut=    71.00 Ry     beta= 0.10
     Davidson diagonalization with overlap
     ethr =  1.43E-06,  avg # of iterations =  2.1

     total cpu time spent up to now is      912.4 secs

     total energy              =   -6906.78421062 Ry
     estimated scf accuracy    <       0.00021250 Ry

     iteration #  8     ecut=    71.00 Ry     beta= 0.10
     Davidson diagonalization with overlap
     ethr =  8.30E-08,  avg # of iterations =  3.3

     total cpu time spent up to now is     1039.0 secs

     total energy              =   -6906.78427155 Ry
     estimated scf accuracy    <       0.00003697 Ry

     iteration #  9     ecut=    71.00 Ry     beta= 0.10
     Davidson diagonalization with overlap
     ethr =  1.44E-08,  avg # of iterations =  2.0

     total cpu time spent up to now is     1142.0 secs

     total energy              =   -6906.78427548 Ry
     estimated scf accuracy    <       0.00000199 Ry

     iteration # 10     ecut=    71.00 Ry     beta= 0.10
     Davidson diagonalization with overlap
     ethr =  7.79E-10,  avg # of iterations =  2.6

     total cpu time spent up to now is     1248.1 secs

     total energy              =   -6906.78427565 Ry
     estimated scf accuracy    <       0.00000114 Ry

     iteration # 11     ecut=    71.00 Ry     beta= 0.10
     Davidson diagonalization with overlap
     ethr =  4.47E-10,  avg # of iterations =  2.0

     total cpu time spent up to now is     1354.0 secs

     End of self-consistent calculation

     Number of k-points >= 100: set verbosity='high' to print the bands.

     the Fermi energy is    23.7050 ev

!    total energy              =   -6906.78427671 Ry

     total all-electron energy =   -144994.979446 Ry
     estimated scf accuracy    <       0.00000027 Ry
     smearing contrib. (-TS)   =       0.01216948 Ry
     internal energy E=F+TS    =   -6906.79644620 Ry

     The total energy is F=E-TS. E is the sum of the following terms:
     one-electron contribution =    -476.13970422 Ry
     hartree contribution      =     451.47923135 Ry
     xc contribution           =    -464.33753139 Ry
     ewald contribution        =   -2623.06461692 Ry
     one-center paw contrib.   =   -3794.73382502 Ry

     convergence has been achieved in  11 iterations

     Forces acting on atoms (cartesian axes, Ry/au):

     atom    1 type  1   force =     0.00001330    0.00000768    0.00023072
     atom    2 type  1   force =    -0.00000621    0.00002567    0.00017881
     atom    3 type  1   force =     0.00001746    0.00001008   -0.00016960
     atom    4 type  1   force =    -0.00001412    0.00002257   -0.00023175
     atom    5 type  1   force =    -0.00001185   -0.00000684    0.00022136
     atom    6 type  1   force =     0.00001913   -0.00001821    0.00017881
     atom    7 type  1   force =    -0.00000043   -0.00000025   -0.00016763
     atom    8 type  1   force =     0.00001248   -0.00002351   -0.00023175
     atom    9 type  1   force =    -0.00001248    0.00002351    0.00023175
     atom   10 type  1   force =     0.00000043    0.00000025    0.00016763
     atom   11 type  1   force =    -0.00001913    0.00001821   -0.00017881
     atom   12 type  1   force =     0.00001185    0.00000684   -0.00022136
     atom   13 type  1   force =     0.00001412   -0.00002257    0.00023175
     atom   14 type  1   force =    -0.00001746   -0.00001008    0.00016960
     atom   15 type  1   force =     0.00000621   -0.00002567   -0.00017881
     atom   16 type  1   force =    -0.00001330   -0.00000768   -0.00023072

     Total force =     0.000817     Total SCF correction =     0.004504
     SCF correction compared to forces is large: reduce conv_thr to get better values


     Computing stress (Cartesian axis) and pressure

          total   stress  (Ry/bohr**3)                   (kbar)     P=       35.54
   0.00027132   0.00000000   0.00000000           39.91        0.00        0.00
   0.00000000   0.00027132   0.00000000            0.00       39.91        0.00
   0.00000000   0.00000000   0.00018225            0.00        0.00       26.81


     BFGS Geometry Optimization
     Energy error            =      0.0E+00
     Gradient error          =      2.3E-04
     Cell gradient error     =      2.7E-04


     number of scf cycles    =   1
     number of bfgs steps    =   0

     enthalpy new            =   -6906.7842767112 Ry

     new trust radius        =       0.0519609481 bohr
     new conv_thr            =       0.0000010000 Ry

     new unit-cell volume =   1493.79964 a.u.^3 (   221.35827 Ang^3 )
     density =     12.13097 g/cm^3

CELL_PARAMETERS (alat= 10.23000000)
   1.006783032   0.000000049   0.000000066
  -0.503391474   0.871899609  -0.000000000
   0.000000104   0.000000060   1.589509278

ATOMIC_POSITIONS (crystal)
Ru            0.1666684341        0.0833341671        0.1250142535
Ru            0.3333341420        0.4166695980        0.3750110465
Ru            0.1666689761        0.0833344381        0.6249895225
Ru            0.3333331932        0.4166692474        0.8749856829
Ru            0.1666651557        0.5833325279        0.1250136753
Ru            0.3333341420        0.9166646441        0.3750110465
Ru            0.1666666439        0.5833332720        0.6249896442
Ru            0.3333331932        0.9166640458        0.8749856829
Ru            0.6666668068        0.0833359542        0.1250143171
Ru            0.8333333561        0.4166667280        0.3750103558
Ru            0.6666658580        0.0833353559        0.6249889535
Ru            0.8333348443        0.4166674721        0.8749863247
Ru            0.6666668068        0.5833307526        0.1250143171
Ru            0.8333310239        0.9166655619        0.3750104775
Ru            0.6666658580        0.5833304020        0.6249889535
Ru            0.8333315659        0.9166658329        0.8749857465



     Writing output data file /scratch/bxp912/ruhcp2.save/
     NEW-OLD atomic charge density approx. for the potential

     Check: negative core charge=   -0.000003
     extrapolated charge  260.58320, renormalised to  256.00000

     total cpu time spent up to now is     1388.8 secs

     Self-consistent Calculation

     iteration #  1     ecut=    71.00 Ry     beta= 0.10
     Davidson diagonalization with overlap
     ethr =  1.00E-06,  avg # of iterations =  6.7

     total cpu time spent up to now is     1622.1 secs

     total energy              =   -6906.52779948 Ry
     estimated scf accuracy    <       0.31070107 Ry

     iteration #  2     ecut=    71.00 Ry     beta= 0.10
     Davidson diagonalization with overlap
     ethr =  1.21E-04,  avg # of iterations =  3.0

     total cpu time spent up to now is     1753.4 secs

     total energy              =   -6906.79838025 Ry
     estimated scf accuracy    <       0.02123628 Ry

     iteration #  3     ecut=    71.00 Ry     beta= 0.10
     Davidson diagonalization with overlap
     ethr =  8.30E-06,  avg # of iterations =  1.7

     total cpu time spent up to now is     1842.2 secs

     total energy              =   -6906.79773341 Ry
     estimated scf accuracy    <       0.01824925 Ry

     iteration #  4     ecut=    71.00 Ry     beta= 0.10
     Davidson diagonalization with overlap
     ethr =  7.13E-06,  avg # of iterations =  1.0

     total cpu time spent up to now is     1924.4 secs

     total energy              =   -6906.79547187 Ry
     estimated scf accuracy    <       0.01653467 Ry

     iteration #  5     ecut=    71.00 Ry     beta= 0.10
     Davidson diagonalization with overlap
     ethr =  6.46E-06,  avg # of iterations =  1.0

     total cpu time spent up to now is     2007.7 secs

     total energy              =   -6906.78484574 Ry
     estimated scf accuracy    <       0.01270689 Ry

     iteration #  6     ecut=    71.00 Ry     beta= 0.10
     Davidson diagonalization with overlap
     ethr =  4.96E-06,  avg # of iterations =  2.1

     total cpu time spent up to now is     2114.6 secs

     total energy              =   -6906.78665360 Ry
     estimated scf accuracy    <       0.00031502 Ry

     iteration #  7     ecut=    71.00 Ry     beta= 0.10
     Davidson diagonalization with overlap
     ethr =  1.23E-07,  avg # of iterations =  3.3

     total cpu time spent up to now is     2234.9 secs

     total energy              =   -6906.78666609 Ry
     estimated scf accuracy    <       0.00016137 Ry

     iteration #  8     ecut=    71.00 Ry     beta= 0.10
     Davidson diagonalization with overlap
     ethr =  6.30E-08,  avg # of iterations =  1.0

     total cpu time spent up to now is     2316.9 secs

     total energy              =   -6906.78625017 Ry
     estimated scf accuracy    <       0.00024601 Ry

     iteration #  9     ecut=    71.00 Ry     beta= 0.10
     Davidson diagonalization with overlap
     ethr =  6.30E-08,  avg # of iterations =  1.1

     total cpu time spent up to now is     2401.4 secs

     total energy              =   -6906.78576794 Ry
     estimated scf accuracy    <       0.00048780 Ry

     iteration # 10     ecut=    71.00 Ry     beta= 0.10
     Davidson diagonalization with overlap
     ethr =  6.30E-08,  avg # of iterations =  2.0

     total cpu time spent up to now is     2499.1 secs

     total energy              =   -6906.78570004 Ry
     estimated scf accuracy    <       0.00043417 Ry

     iteration # 11     ecut=    71.00 Ry     beta= 0.10
     Davidson diagonalization with overlap
     ethr =  6.30E-08,  avg # of iterations =  2.0

     total cpu time spent up to now is     2594.7 secs

     total energy              =   -6906.78560039 Ry
     estimated scf accuracy    <       0.00021231 Ry

     iteration # 12     ecut=    71.00 Ry     beta= 0.10
     Davidson diagonalization with overlap
     ethr =  6.30E-08,  avg # of iterations =  2.1

     total cpu time spent up to now is     2697.9 secs

     total energy              =   -6906.78560431 Ry
     estimated scf accuracy    <       0.00002982 Ry

     iteration # 13     ecut=    71.00 Ry     beta= 0.10
     Davidson diagonalization with overlap
     ethr =  1.16E-08,  avg # of iterations =  2.9

     total cpu time spent up to now is     2818.0 secs

     End of self-consistent calculation

     Number of k-points >= 100: set verbosity='high' to print the bands.

     the Fermi energy is    23.1833 ev

!    total energy              =   -6906.78561196 Ry

     total all-electron energy =   -144994.980782 Ry
     estimated scf accuracy    <       0.00000033 Ry
     smearing contrib. (-TS)   =       0.01314140 Ry
     internal energy E=F+TS    =   -6906.79875336 Ry

     The total energy is F=E-TS. E is the sum of the following terms:
     one-electron contribution =    -499.19441518 Ry
     hartree contribution      =     458.36617326 Ry
     xc contribution           =    -463.98535683 Ry
     ewald contribution        =   -2607.26345801 Ry
     one-center paw contrib.   =   -3794.72169658 Ry

     convergence has been achieved in  13 iterations

     Forces acting on atoms (cartesian axes, Ry/au):

     atom    1 type  1   force =    -0.00000045   -0.00000026   -0.00014578
     atom    2 type  1   force =     0.00000259   -0.00000613   -0.00009173
     atom    3 type  1   force =    -0.00000297   -0.00000172    0.00008831
     atom    4 type  1   force =     0.00000735   -0.00000522    0.00014774
     atom    5 type  1   force =     0.00000541    0.00000312   -0.00014297
     atom    6 type  1   force =    -0.00000402    0.00000531   -0.00009173
     atom    7 type  1   force =     0.00000006    0.00000004    0.00008702
     atom    8 type  1   force =    -0.00000085    0.00000897    0.00014774
     atom    9 type  1   force =     0.00000085   -0.00000897   -0.00014774
     atom   10 type  1   force =    -0.00000006   -0.00000004   -0.00008702
     atom   11 type  1   force =     0.00000402   -0.00000531    0.00009173
     atom   12 type  1   force =    -0.00000541   -0.00000312    0.00014297
     atom   13 type  1   force =    -0.00000735    0.00000522   -0.00014774
     atom   14 type  1   force =     0.00000297    0.00000172   -0.00008831
     atom   15 type  1   force =    -0.00000259    0.00000613    0.00009173
     atom   16 type  1   force =     0.00000045    0.00000026    0.00014578

     Total force =     0.000485     Total SCF correction =     0.000992
     SCF correction compared to forces is large: reduce conv_thr to get better values


     Computing stress (Cartesian axis) and pressure

          total   stress  (Ry/bohr**3)                   (kbar)     P=      -22.52
  -0.00013977  -0.00000000  -0.00000000          -20.56       -0.00       -0.00
  -0.00000000  -0.00013977  -0.00000000           -0.00      -20.56       -0.00
  -0.00000000  -0.00000000  -0.00017971           -0.00       -0.00      -26.44

     Energy error            =      1.3E-03
     Gradient error          =      1.5E-04
     Cell gradient error     =      1.8E-04


     number of scf cycles    =   2
     number of bfgs steps    =   1

     enthalpy old            =   -6906.7842767112 Ry
     enthalpy new            =   -6906.7856119607 Ry

     CASE: enthalpy_new < enthalpy_old

     new trust radius        =       0.0213115447 bohr
     new conv_thr            =       0.0000000100 Ry

     new unit-cell volume =   1483.45474 a.u.^3 (   219.82531 Ang^3 )
     density =     12.21557 g/cm^3

CELL_PARAMETERS (alat= 10.23000000)
   1.004676769   0.000000024   0.000000044
  -0.502338364   0.870075569  -0.000000000
   0.000000070   0.000000040   1.585126981

ATOMIC_POSITIONS (crystal)
Ru            0.1666684201        0.0833341600        0.1250088202
Ru            0.3333340951        0.4166692032        0.3750076551
Ru            0.1666687640        0.0833343320        0.6249927892
Ru            0.3333334569        0.4166689125        0.8749911908
Ru            0.1666655765        0.5833327382        0.1250083427
Ru            0.3333340951        0.9166649919        0.3750076551
Ru            0.1666666482        0.5833332741        0.6249928627
Ru            0.3333334569        0.9166646444        0.8749911908
Ru            0.6666665431        0.0833353556        0.1250088092
Ru            0.8333333518        0.4166667259        0.3750071373
Ru            0.6666659049        0.0833350081        0.6249923449
Ru            0.8333344235        0.4166672618        0.8749916573
Ru            0.6666665431        0.5833310875        0.1250088092
Ru            0.8333312360        0.9166656680        0.3750072108
Ru            0.6666659049        0.5833307968        0.6249923449
Ru            0.8333315799        0.9166658400        0.8749911798



     Writing output data file /scratch/bxp912/ruhcp2.save/
     NEW-OLD atomic charge density approx. for the potential

     Check: negative core charge=   -0.000003
     extrapolated charge  254.21485, renormalised to  256.00000

     total cpu time spent up to now is     2854.0 secs

     Self-consistent Calculation

     iteration #  1     ecut=    71.00 Ry     beta= 0.10
     Davidson diagonalization with overlap
     ethr =  1.00E-06,  avg # of iterations =  5.1

     total cpu time spent up to now is     3032.7 secs

     total energy              =   -6906.74662445 Ry
     estimated scf accuracy    <       0.04986122 Ry

     iteration #  2     ecut=    71.00 Ry     beta= 0.10
     Davidson diagonalization with overlap
     ethr =  1.95E-05,  avg # of iterations =  3.0

     total cpu time spent up to now is     3164.1 secs

     total energy              =   -6906.78823642 Ry
     estimated scf accuracy    <       0.00281491 Ry

     iteration #  3     ecut=    71.00 Ry     beta= 0.10
     Davidson diagonalization with overlap
     ethr =  1.10E-06,  avg # of iterations =  1.7

     total cpu time spent up to now is     3254.5 secs

     total energy              =   -6906.78813061 Ry
     estimated scf accuracy    <       0.00243568 Ry

     iteration #  4     ecut=    71.00 Ry     beta= 0.10
     Davidson diagonalization with overlap
     ethr =  9.51E-07,  avg # of iterations =  1.0

     total cpu time spent up to now is     3342.2 secs

     total energy              =   -6906.78837903 Ry
     estimated scf accuracy    <       0.00215378 Ry

     iteration #  5     ecut=    71.00 Ry     beta= 0.10
     Davidson diagonalization with overlap
     ethr =  8.41E-07,  avg # of iterations =  1.0

     total cpu time spent up to now is     3423.6 secs

     total energy              =   -6906.78734236 Ry
     estimated scf accuracy    <       0.00257764 Ry

     iteration #  6     ecut=    71.00 Ry     beta= 0.10
     Davidson diagonalization with overlap
     ethr =  8.41E-07,  avg # of iterations =  1.0

     total cpu time spent up to now is     3509.2 secs

     total energy              =   -6906.78728536 Ry
     estimated scf accuracy    <       0.00109100 Ry

     iteration #  7     ecut=    71.00 Ry     beta= 0.10
     Davidson diagonalization with overlap
     ethr =  4.26E-07,  avg # of iterations =  1.0

     total cpu time spent up to now is     3591.0 secs

     total energy              =   -6906.78651328 Ry
     estimated scf accuracy    <       0.00092029 Ry

     iteration #  8     ecut=    71.00 Ry     beta= 0.10
     Davidson diagonalization with overlap
     ethr =  3.59E-07,  avg # of iterations =  2.1

     total cpu time spent up to now is     3698.7 secs

     total energy              =   -6906.78651566 Ry
     estimated scf accuracy    <       0.00009410 Ry

     iteration #  9     ecut=    71.00 Ry     beta= 0.10
     Davidson diagonalization with overlap
     ethr =  3.68E-08,  avg # of iterations =  2.9

     total cpu time spent up to now is     3798.4 secs

     total energy              =   -6906.78636974 Ry
     estimated scf accuracy    <       0.00004638 Ry

     iteration # 10     ecut=    71.00 Ry     beta= 0.10
     Davidson diagonalization with overlap
     ethr =  1.81E-08,  avg # of iterations =  3.8

     total cpu time spent up to now is     3940.2 secs

     total energy              =   -6906.78640198 Ry
     estimated scf accuracy    <       0.00001058 Ry

     iteration # 11     ecut=    71.00 Ry     beta= 0.10
     Davidson diagonalization with overlap
     ethr =  4.13E-09,  avg # of iterations =  3.4

     total cpu time spent up to now is     4075.8 secs

     total energy              =   -6906.78640782 Ry
     estimated scf accuracy    <       0.00002562 Ry

     iteration # 12     ecut=    71.00 Ry     beta= 0.10
     Davidson diagonalization with overlap
     ethr =  4.13E-09,  avg # of iterations =  2.0

     total cpu time spent up to now is     4178.1 secs

     total energy              =   -6906.78640369 Ry
     estimated scf accuracy    <       0.00000742 Ry

     iteration # 13     ecut=    71.00 Ry     beta= 0.10
     Davidson diagonalization with overlap
     ethr =  2.90E-09,  avg # of iterations =  2.8

     total cpu time spent up to now is     4296.6 secs

     total energy              =   -6906.78640642 Ry
     estimated scf accuracy    <       0.00000065 Ry

     iteration # 14     ecut=    71.00 Ry     beta= 0.10
     Davidson diagonalization with overlap
     ethr =  2.53E-10,  avg # of iterations =  1.6

     total cpu time spent up to now is     4392.1 secs

     total energy              =   -6906.78640632 Ry
     estimated scf accuracy    <       0.00000050 Ry

     iteration # 15     ecut=    71.00 Ry     beta= 0.10
     Davidson diagonalization with overlap
     ethr =  1.95E-10,  avg # of iterations =  1.0

     total cpu time spent up to now is     4480.3 secs

     total energy              =   -6906.78640642 Ry
     estimated scf accuracy    <       0.00000024 Ry

     iteration # 16     ecut=    71.00 Ry     beta= 0.10
     Davidson diagonalization with overlap
     ethr =  9.27E-11,  avg # of iterations =  1.0

     total cpu time spent up to now is     4561.7 secs

     total energy              =   -6906.78640626 Ry
     estimated scf accuracy    <       0.00000027 Ry

     iteration # 17     ecut=    71.00 Ry     beta= 0.10
     Davidson diagonalization with overlap
     ethr =  9.27E-11,  avg # of iterations =  2.1

     total cpu time spent up to now is     4676.4 secs

     End of self-consistent calculation

     Number of k-points >= 100: set verbosity='high' to print the bands.

     the Fermi energy is    23.3829 ev

!    total energy              =   -6906.78640626 Ry

     total all-electron energy =   -144994.981576 Ry
     estimated scf accuracy    <          5.0E-09 Ry
     smearing contrib. (-TS)   =       0.01280491 Ry
     internal energy E=F+TS    =   -6906.79921117 Ry

     The total energy is F=E-TS. E is the sum of the following terms:
     one-electron contribution =    -490.40502922 Ry
     hartree contribution      =     455.74746102 Ry
     xc contribution           =    -464.12124085 Ry
     ewald contribution        =   -2613.29359094 Ry
     one-center paw contrib.   =   -3794.72681118 Ry

     convergence has been achieved in  17 iterations

     Forces acting on atoms (cartesian axes, Ry/au):

     atom    1 type  1   force =    -0.00000368   -0.00000212   -0.00004967
     atom    2 type  1   force =     0.00000073   -0.00000644   -0.00003977
     atom    3 type  1   force =    -0.00000518   -0.00000299    0.00003706
     atom    4 type  1   force =     0.00000359   -0.00000567    0.00005062
     atom    5 type  1   force =     0.00000276    0.00000159   -0.00004719
     atom    6 type  1   force =    -0.00000521    0.00000385   -0.00003977
     atom    7 type  1   force =    -0.00000084   -0.00000049    0.00003618
     atom    8 type  1   force =    -0.00000312    0.00000595    0.00005062
     atom    9 type  1   force =     0.00000312   -0.00000595   -0.00005062
     atom   10 type  1   force =     0.00000084    0.00000049   -0.00003618
     atom   11 type  1   force =     0.00000521   -0.00000385    0.00003977
     atom   12 type  1   force =    -0.00000276   -0.00000159    0.00004719
     atom   13 type  1   force =    -0.00000359    0.00000567   -0.00005062
     atom   14 type  1   force =     0.00000518    0.00000299   -0.00003706
     atom   15 type  1   force =    -0.00000073    0.00000644    0.00003977
     atom   16 type  1   force =     0.00000368    0.00000212    0.00004967

     Total force =     0.000178     Total SCF correction =     0.000015


     Computing stress (Cartesian axis) and pressure

          total   stress  (Ry/bohr**3)                   (kbar)     P=        0.07
   0.00000376  -0.00000000  -0.00000000            0.55       -0.00       -0.00
  -0.00000000   0.00000376  -0.00000000           -0.00        0.55       -0.00
  -0.00000000  -0.00000000  -0.00000614           -0.00       -0.00       -0.90

     Energy error            =      7.9E-04
     Gradient error          =      5.1E-05
     Cell gradient error     =      6.1E-06


     number of scf cycles    =   3
     number of bfgs steps    =   2

     enthalpy old            =   -6906.7856119607 Ry
     enthalpy new            =   -6906.7864062568 Ry

     CASE: enthalpy_new < enthalpy_old

     new trust radius        =       0.0012605019 bohr
     new conv_thr            =       0.0000000100 Ry

     new unit-cell volume =   1483.49307 a.u.^3 (   219.83099 Ang^3 )
     density =     12.21525 g/cm^3

CELL_PARAMETERS (alat= 10.23000000)
   1.004771940  -0.000000013   0.000000013
  -0.502385981   0.870158045  -0.000000000
   0.000000020   0.000000011   1.584867598

ATOMIC_POSITIONS (crystal)
Ru            0.1666679414        0.0833339207        0.1250057365
Ru            0.3333338029        0.4166684759        0.3750051920
Ru            0.1666680886        0.0833339943        0.6249950850
Ru            0.3333334896        0.4166682718        0.8749943335
Ru            0.1666659381        0.5833329191        0.1250054122
Ru            0.3333338029        0.9166654271        0.3750051920
Ru            0.1666665377        0.5833332188        0.6249951040
Ru            0.3333334896        0.9166653178        0.8749943335
Ru            0.6666665104        0.0833346822        0.1250056665
Ru            0.8333334623        0.4166667812        0.3750048960
Ru            0.6666661971        0.0833345729        0.6249948080
Ru            0.8333340619        0.4166670809        0.8749945878
Ru            0.6666665104        0.5833317282        0.1250056665
Ru            0.8333319114        0.9166660057        0.3750049150
Ru            0.6666661971        0.5833315241        0.6249948080
Ru            0.8333320586        0.9166660793        0.8749942635



     Writing output data file /scratch/bxp912/ruhcp2.save/
     NEW-OLD atomic charge density approx. for the potential

     Check: negative core charge=   -0.000003
     extrapolated charge  256.00662, renormalised to  256.00000

     total cpu time spent up to now is     4714.1 secs

     Self-consistent Calculation

     iteration #  1     ecut=    71.00 Ry     beta= 0.10
     Davidson diagonalization with overlap
     ethr =  1.00E-06,  avg # of iterations =  2.0

     Threshold (ethr) on eigenvalues was too large:
     Diagonalizing with lowered threshold

     Davidson diagonalization with overlap
     ethr =  3.01E-10,  avg # of iterations =  3.9

     total cpu time spent up to now is     4964.8 secs

     total energy              =   -6906.78640718 Ry
     estimated scf accuracy    <       0.00000083 Ry

     iteration #  2     ecut=    71.00 Ry     beta= 0.10
     Davidson diagonalization with overlap
     ethr =  3.24E-10,  avg # of iterations =  2.9

     total cpu time spent up to now is     5089.2 secs

     total energy              =   -6906.78640776 Ry
     estimated scf accuracy    <       0.00000012 Ry

     iteration #  3     ecut=    71.00 Ry     beta= 0.10
     Davidson diagonalization with overlap
     ethr =  4.50E-11,  avg # of iterations =  1.3

     total cpu time spent up to now is     5174.5 secs

     total energy              =   -6906.78640776 Ry
     estimated scf accuracy    <       0.00000013 Ry

     iteration #  4     ecut=    71.00 Ry     beta= 0.10
     Davidson diagonalization with overlap
     ethr =  4.50E-11,  avg # of iterations =  1.0

     total cpu time spent up to now is     5256.5 secs

     total energy              =   -6906.78640775 Ry
     estimated scf accuracy    <       0.00000005 Ry

     iteration #  5     ecut=    71.00 Ry     beta= 0.10
     Davidson diagonalization with overlap
     ethr =  2.11E-11,  avg # of iterations =  2.6

     total cpu time spent up to now is     5375.0 secs

     total energy              =   -6906.78640778 Ry
     estimated scf accuracy    <       0.00000002 Ry

     iteration #  6     ecut=    71.00 Ry     beta= 0.10
     Davidson diagonalization with overlap
     ethr =  6.82E-12,  avg # of iterations =  1.0

     total cpu time spent up to now is     5458.4 secs

     total energy              =   -6906.78640777 Ry
     estimated scf accuracy    <       0.00000001 Ry

     iteration #  7     ecut=    71.00 Ry     beta= 0.10
     Davidson diagonalization with overlap
     ethr =  5.58E-12,  avg # of iterations =  2.0

     total cpu time spent up to now is     5551.8 secs

     End of self-consistent calculation

     Number of k-points >= 100: set verbosity='high' to print the bands.

     the Fermi energy is    23.3822 ev

!    total energy              =   -6906.78640777 Ry

     total all-electron energy =   -144994.981577 Ry
     estimated scf accuracy    <          2.7E-09 Ry
     smearing contrib. (-TS)   =       0.01281577 Ry
     internal energy E=F+TS    =   -6906.79922354 Ry

     The total energy is F=E-TS. E is the sum of the following terms:
     one-electron contribution =    -490.44806888 Ry
     hartree contribution      =     455.76066956 Ry
     xc contribution           =    -464.12047436 Ry
     ewald contribution        =   -2613.26463220 Ry
     one-center paw contrib.   =   -3794.72671766 Ry

     convergence has been achieved in   7 iterations

     Forces acting on atoms (cartesian axes, Ry/au):

     atom    1 type  1   force =    -0.00000196   -0.00000113   -0.00002856
     atom    2 type  1   force =     0.00000092   -0.00000286   -0.00002737
     atom    3 type  1   force =    -0.00000206   -0.00000119    0.00002620
     atom    4 type  1   force =     0.00000129   -0.00000248    0.00002852
     atom    5 type  1   force =     0.00000075    0.00000044   -0.00002733
     atom    6 type  1   force =    -0.00000202    0.00000223   -0.00002737
     atom    7 type  1   force =    -0.00000017   -0.00000010    0.00002597
     atom    8 type  1   force =    -0.00000151    0.00000236    0.00002852
     atom    9 type  1   force =     0.00000151   -0.00000236   -0.00002852
     atom   10 type  1   force =     0.00000017    0.00000010   -0.00002597
     atom   11 type  1   force =     0.00000202   -0.00000223    0.00002737
     atom   12 type  1   force =    -0.00000075   -0.00000044    0.00002733
     atom   13 type  1   force =    -0.00000129    0.00000248   -0.00002852
     atom   14 type  1   force =     0.00000206    0.00000119   -0.00002620
     atom   15 type  1   force =    -0.00000092    0.00000286    0.00002737
     atom   16 type  1   force =     0.00000196    0.00000113    0.00002856

     Total force =     0.000110     Total SCF correction =     0.000028
     SCF correction compared to forces is large: reduce conv_thr to get better values


     Computing stress (Cartesian axis) and pressure

          total   stress  (Ry/bohr**3)                   (kbar)     P=       -0.15
  -0.00000051  -0.00000000  -0.00000000           -0.08       -0.00       -0.00
  -0.00000000  -0.00000051  -0.00000000           -0.00       -0.08       -0.00
  -0.00000000  -0.00000000  -0.00000205           -0.00       -0.00       -0.30

     Energy error            =      1.5E-06
     Gradient error          =      2.9E-05
     Cell gradient error     =      2.1E-06


     bfgs converged in   4 scf cycles and   3 bfgs steps
     (criteria: energy <  1.0E-04 Ry, force <  1.0E-03Ry/Bohr, cell <  5.0E-01kbar)

     End of BFGS Geometry Optimization

     Final enthalpy =   -6906.7864077705 Ry

     File /scratch/bxp912/ruhcp2.bfgs deleted, as requested
Begin final coordinates
     new unit-cell volume =   1483.49307 a.u.^3 (   219.83099 Ang^3 )
     density =     12.21525 g/cm^3

CELL_PARAMETERS (alat= 10.23000000)
   1.004771940  -0.000000013   0.000000013
  -0.502385981   0.870158045  -0.000000000
   0.000000020   0.000000011   1.584867598

ATOMIC_POSITIONS (crystal)
Ru            0.1666679414        0.0833339207        0.1250057365
Ru            0.3333338029        0.4166684759        0.3750051920
Ru            0.1666680886        0.0833339943        0.6249950850
Ru            0.3333334896        0.4166682718        0.8749943335
Ru            0.1666659381        0.5833329191        0.1250054122
Ru            0.3333338029        0.9166654271        0.3750051920
Ru            0.1666665377        0.5833332188        0.6249951040
Ru            0.3333334896        0.9166653178        0.8749943335
Ru            0.6666665104        0.0833346822        0.1250056665
Ru            0.8333334623        0.4166667812        0.3750048960
Ru            0.6666661971        0.0833345729        0.6249948080
Ru            0.8333340619        0.4166670809        0.8749945878
Ru            0.6666665104        0.5833317282        0.1250056665
Ru            0.8333319114        0.9166660057        0.3750049150
Ru            0.6666661971        0.5833315241        0.6249948080
Ru            0.8333320586        0.9166660793        0.8749942635
End final coordinates



     Writing output data file /scratch/bxp912/ruhcp2.save/

     Final scf calculation at the relaxed structure.
     The G-vectors are recalculated for the final unit cell
     Results may differ from those at the preceding step.
 
     Parallelization info
     --------------------
     sticks:   dense  smooth     PW     G-vecs:    dense   smooth      PW
     Min          43      28      8                 3101     1660     256
     Max          44      29      9                 3110     1673     265
     Sum        3115    2065    595               223517   120039   18665
 


     bravais-lattice index     =            4
     lattice parameter (alat)  =      10.2300  a.u.
     unit-cell volume          =    1483.4931 (a.u.)^3
     number of atoms/cell      =           16
     number of atomic types    =            1
     number of electrons       =       256.00
     number of Kohn-Sham states=          154
     kinetic-energy cutoff     =      71.0000  Ry
     charge density cutoff     =     430.0000  Ry
     scf convergence threshold =      1.0E-08
     mixing beta               =       0.1000
     number of iterations used =           10  plain     mixing
     press convergence thresh. =      5.0E-01
     Exchange-correlation= SLA  PW   PBX  PBC
                           (   1   4   3   4   0   0   0)

     celldm(1)=  10.230000  celldm(2)=   0.000000  celldm(3)=   1.582300
     celldm(4)=   0.000000  celldm(5)=   0.000000  celldm(6)=   0.000000

     crystal axes: (cart. coord. in units of alat)
               a(1) = (   1.004772  -0.000000   0.000000 )  
               a(2) = (  -0.502386   0.870158  -0.000000 )  
               a(3) = (   0.000000   0.000000   1.584868 )  

     reciprocal axes: (cart. coord. in units 2 pi/alat)
               b(1) = (  0.995251  0.574608 -0.000000 )  
               b(2) = (  0.000000  1.149217 -0.000000 )  
               b(3) = ( -0.000000 -0.000000  0.630968 )  


     PseudoPot. # 1 for Ru read from file:
     /rds/homes/b/bxp912/pp/Ru.pbe-spn-kjpaw_psl.1.0.0.UPF
     MD5 check sum: 0ae1f594dea09af7be8575c3a481d1ae
     Pseudo is Projector augmented-wave + core cor, Zval = 16.0
     Generated using "atomic" code by A. Dal Corso  v.5.1
     Shape of augmentation charge: PSQ
     Using radial grid of 1233 points,  6 beta functions with: 
                l(1) =   0
                l(2) =   0
                l(3) =   1
                l(4) =   1
                l(5) =   2
                l(6) =   2
     Q(r) pseudized with 0 coefficients 


     atomic species   valence    mass     pseudopotential
        Ru            16.00   101.07000     Ru( 1.00)

      4 Sym. Ops., with inversion, found



   Cartesian axes

     site n.     atom                  positions (alat units)
         1           Ru  tau(   1) = (   0.1255975   0.0725137   0.1981175  )
         2           Ru  tau(   2) = (   0.1255961   0.3625674   0.5943336  )
         3           Ru  tau(   3) = (   0.1255976   0.0725138   0.9905345  )
         4           Ru  tau(   4) = (   0.1255959   0.3625673   1.3867502  )
         5           Ru  tau(   5) = (  -0.1255970   0.5075918   0.1981170  )
         6           Ru  tau(   6) = (  -0.1255954   0.7976438   0.5943336  )
         7           Ru  tau(   7) = (  -0.1255966   0.5075921   0.9905345  )
         8           Ru  tau(   8) = (  -0.1255957   0.7976437   1.3867502  )
         9           Ru  tau(   9) = (   0.6279816   0.0725143   0.1981174  )
        10           Ru  tau(  10) = (   0.6279825   0.3625659   0.5943331  )
        11           Ru  tau(  11) = (   0.6279814   0.0725142   0.9905340  )
        12           Ru  tau(  12) = (   0.6279830   0.3625662   1.3867506  )
        13           Ru  tau(  13) = (   0.3767901   0.5075908   0.1981174  )
        14           Ru  tau(  14) = (   0.3767884   0.7976443   0.5943331  )
        15           Ru  tau(  15) = (   0.3767899   0.5075906   0.9905340  )
        16           Ru  tau(  16) = (   0.3767885   0.7976444   1.3867501  )

     number of k points=   378  Marzari-Vanderbilt smearing, width (Ry)=  0.0400

     Number of k-points >= 100: set verbosity='high' to print them.

     Dense  grid:   223517 G-vectors     FFT dimensions: (  72,  72, 108)

     Smooth grid:   120039 G-vectors     FFT dimensions: (  60,  60,  90)

     Estimated max dynamical RAM per process >     202.79 MB

     Estimated total dynamical RAM >      14.26 GB

     Check: negative core charge=   -0.000002

     Initial potential from superposition of free atoms

     starting charge  255.98980, renormalised to  256.00000
     Starting wfcs are  160 randomized atomic wfcs
     Checking if some PAW data can be deallocated... 

     total cpu time spent up to now is     5621.2 secs

     Self-consistent Calculation

     iteration #  1     ecut=    71.00 Ry     beta= 0.10
     Davidson diagonalization with overlap
     c_bands:  1 eigenvalues not converged
     c_bands:  1 eigenvalues not converged
     c_bands:  1 eigenvalues not converged
     c_bands:  1 eigenvalues not converged
     c_bands:  1 eigenvalues not converged
     c_bands:  1 eigenvalues not converged
     c_bands:  1 eigenvalues not converged
     c_bands:  1 eigenvalues not converged
     c_bands:  1 eigenvalues not converged
     c_bands:  1 eigenvalues not converged
     c_bands:  1 eigenvalues not converged
     c_bands:  1 eigenvalues not converged
     c_bands:  1 eigenvalues not converged
     c_bands:  1 eigenvalues not converged
     c_bands:  1 eigenvalues not converged
     c_bands:  1 eigenvalues not converged
     c_bands:  1 eigenvalues not converged
     c_bands:  1 eigenvalues not converged
     c_bands:  1 eigenvalues not converged
     c_bands:  1 eigenvalues not converged
     c_bands:  1 eigenvalues not converged
     c_bands:  1 eigenvalues not converged
     c_bands:  1 eigenvalues not converged
     c_bands:  1 eigenvalues not converged
     c_bands:  1 eigenvalues not converged
     c_bands:  1 eigenvalues not converged
     c_bands:  1 eigenvalues not converged
     ethr =  1.00E-06,  avg # of iterations = 13.3

     total cpu time spent up to now is     5947.1 secs

     total energy              =   -6906.84843886 Ry
     estimated scf accuracy    <       0.35164258 Ry

     iteration #  2     ecut=    71.00 Ry     beta= 0.10
     Davidson diagonalization with overlap
     ethr =  1.37E-04,  avg # of iterations =  1.0

     total cpu time spent up to now is     6029.6 secs

     total energy              =   -6906.74202042 Ry
     estimated scf accuracy    <       0.21394816 Ry

     iteration #  3     ecut=    71.00 Ry     beta= 0.10
     Davidson diagonalization with overlap
     ethr =  8.36E-05,  avg # of iterations =  2.0

     total cpu time spent up to now is     6135.7 secs

     total energy              =   -6906.78646279 Ry
     estimated scf accuracy    <       0.01334100 Ry

     iteration #  4     ecut=    71.00 Ry     beta= 0.10
     Davidson diagonalization with overlap
     ethr =  5.21E-06,  avg # of iterations =  1.1

     total cpu time spent up to now is     6222.6 secs

     total energy              =   -6906.78674046 Ry
     estimated scf accuracy    <       0.00487430 Ry

     iteration #  5     ecut=    71.00 Ry     beta= 0.10
     Davidson diagonalization with overlap
     ethr =  1.90E-06,  avg # of iterations =  1.8

     total cpu time spent up to now is     6308.5 secs

     total energy              =   -6906.78715188 Ry
     estimated scf accuracy    <       0.00265980 Ry

     iteration #  6     ecut=    71.00 Ry     beta= 0.10
     Davidson diagonalization with overlap
     ethr =  1.04E-06,  avg # of iterations =  2.0

     total cpu time spent up to now is     6407.8 secs

     total energy              =   -6906.78712189 Ry
     estimated scf accuracy    <       0.00055647 Ry

     iteration #  7     ecut=    71.00 Ry     beta= 0.10
     Davidson diagonalization with overlap
     ethr =  2.17E-07,  avg # of iterations =  2.0

     total cpu time spent up to now is     6509.5 secs

     total energy              =   -6906.78721631 Ry
     estimated scf accuracy    <       0.00005235 Ry

     iteration #  8     ecut=    71.00 Ry     beta= 0.10
     Davidson diagonalization with overlap
     ethr =  2.04E-08,  avg # of iterations =  3.1

     total cpu time spent up to now is     6633.4 secs

     total energy              =   -6906.78720927 Ry
     estimated scf accuracy    <       0.00006664 Ry

     iteration #  9     ecut=    71.00 Ry     beta= 0.10
     Davidson diagonalization with overlap
     ethr =  2.04E-08,  avg # of iterations =  2.3

     total cpu time spent up to now is     6739.9 secs

     total energy              =   -6906.78722207 Ry
     estimated scf accuracy    <       0.00000157 Ry

     iteration # 10     ecut=    71.00 Ry     beta= 0.10
     Davidson diagonalization with overlap
     ethr =  6.15E-10,  avg # of iterations =  3.9

     total cpu time spent up to now is     6870.8 secs

     total energy              =   -6906.78722263 Ry
     estimated scf accuracy    <       0.00000159 Ry

     iteration # 11     ecut=    71.00 Ry     beta= 0.10
     Davidson diagonalization with overlap
     ethr =  6.15E-10,  avg # of iterations =  2.0

     total cpu time spent up to now is     6961.4 secs

     total energy              =   -6906.78722256 Ry
     estimated scf accuracy    <       0.00000089 Ry

     iteration # 12     ecut=    71.00 Ry     beta= 0.10
     Davidson diagonalization with overlap
     ethr =  3.48E-10,  avg # of iterations =  2.0

     total cpu time spent up to now is     7066.1 secs

     total energy              =   -6906.78722274 Ry
     estimated scf accuracy    <       0.00000012 Ry

     iteration # 13     ecut=    71.00 Ry     beta= 0.10
     Davidson diagonalization with overlap
     ethr =  4.71E-11,  avg # of iterations =  2.6

     total cpu time spent up to now is     7184.3 secs

     total energy              =   -6906.78722290 Ry
     estimated scf accuracy    <       0.00000001 Ry

     iteration # 14     ecut=    71.00 Ry     beta= 0.10
     Davidson diagonalization with overlap
     ethr =  4.77E-12,  avg # of iterations =  2.0

     total cpu time spent up to now is     7291.6 secs

     End of self-consistent calculation

     Number of k-points >= 100: set verbosity='high' to print the bands.

     the Fermi energy is    23.3822 ev

!    total energy              =   -6906.78722345 Ry

     total all-electron energy =   -144994.982393 Ry
     estimated scf accuracy    <          5.3E-09 Ry
     smearing contrib. (-TS)   =       0.01281583 Ry
     internal energy E=F+TS    =   -6906.80003928 Ry

     The total energy is F=E-TS. E is the sum of the following terms:
     one-electron contribution =    -490.45087727 Ry
     hartree contribution      =     455.76082424 Ry
     xc contribution           =    -464.11951195 Ry
     ewald contribution        =   -2613.26463220 Ry
     one-center paw contrib.   =   -3794.72584210 Ry

     convergence has been achieved in  14 iterations

     Forces acting on atoms (cartesian axes, Ry/au):

     atom    1 type  1   force =    -0.00000309   -0.00000178   -0.00005069
     atom    2 type  1   force =    -0.00000085   -0.00000498   -0.00002341
     atom    3 type  1   force =    -0.00000488   -0.00000282    0.00002061
     atom    4 type  1   force =     0.00000162   -0.00000408    0.00005232
     atom    5 type  1   force =     0.00000103    0.00000059   -0.00004791
     atom    6 type  1   force =    -0.00000473    0.00000175   -0.00002341
     atom    7 type  1   force =    -0.00000191   -0.00000110    0.00001888
     atom    8 type  1   force =    -0.00000272    0.00000344    0.00005232
     atom    9 type  1   force =     0.00000272   -0.00000344   -0.00005232
     atom   10 type  1   force =     0.00000191    0.00000110   -0.00001888
     atom   11 type  1   force =     0.00000473   -0.00000175    0.00002341
     atom   12 type  1   force =    -0.00000103   -0.00000059    0.00004791
     atom   13 type  1   force =    -0.00000162    0.00000408   -0.00005232
     atom   14 type  1   force =     0.00000488    0.00000282   -0.00002061
     atom   15 type  1   force =     0.00000085    0.00000498    0.00002341
     atom   16 type  1   force =     0.00000309    0.00000178    0.00005069

     Total force =     0.000157     Total SCF correction =     0.000249
     SCF correction compared to forces is large: reduce conv_thr to get better values


     Computing stress (Cartesian axis) and pressure

          total   stress  (Ry/bohr**3)                   (kbar)     P=        0.11
   0.00000170   0.00000000  -0.00000000            0.25        0.00       -0.00
   0.00000000   0.00000170  -0.00000000            0.00        0.25       -0.00
  -0.00000000  -0.00000000  -0.00000114           -0.00       -0.00       -0.17


     Writing output data file /scratch/bxp912/ruhcp2.save/
 
     init_run     :     67.79s CPU     69.17s WALL (       2 calls)
     electrons    :   6970.25s CPU   7078.82s WALL (       5 calls)
     update_pot   :      0.74s CPU      0.76s WALL (       3 calls)
     forces       :     58.35s CPU     58.87s WALL (       5 calls)
     stress       :    104.50s CPU    105.07s WALL (       5 calls)

     Called by init_run:
     wfcinit      :     67.06s CPU     68.27s WALL (       2 calls)
     potinit      :      0.22s CPU      0.24s WALL (       2 calls)
     hinit0       :      0.19s CPU      0.30s WALL (       2 calls)

     Called by electrons:
     c_bands      :   6104.58s CPU   6196.85s WALL (      64 calls)
     sum_band     :    860.41s CPU    875.92s WALL (      64 calls)
     v_of_rho     :      0.42s CPU      0.45s WALL (      67 calls)
     newd         :      0.72s CPU      1.00s WALL (      67 calls)
     PAW_pot      :      3.94s CPU      4.34s WALL (      70 calls)
     mix_rho      :      0.55s CPU      0.57s WALL (      64 calls)

     Called by c_bands:
     init_us_2    :     25.28s CPU     26.63s WALL (   54054 calls)
     cegterg      :   6014.85s CPU   6104.74s WALL (   24192 calls)

     Called by *egterg:
     cdiaghg      :    835.92s CPU    840.90s WALL (   80758 calls)
     h_psi        :   3902.43s CPU   3975.91s WALL (   83404 calls)
     s_psi        :    111.77s CPU    112.86s WALL (   83404 calls)
     g_psi        :      4.32s CPU      4.36s WALL (   58456 calls)

     Called by h_psi:
     h_psi:calbec :    309.04s CPU    311.81s WALL (   83404 calls)
     vloc_psi     :   3459.06s CPU   3528.61s WALL (   83404 calls)
     add_vuspsi   :    124.47s CPU    125.75s WALL (   83404 calls)

     General routines
     calbec       :    493.53s CPU    497.92s WALL (  118180 calls)
     fft          :      0.60s CPU      0.64s WALL (     991 calls)
     ffts         :      0.05s CPU      0.06s WALL (     131 calls)
     fftw         :   4048.77s CPU   4128.92s WALL (22616550 calls)
     interpolate  :      0.07s CPU      0.09s WALL (      67 calls)
 
     Parallel routines
     fft_scatt_xy :    222.03s CPU    226.46s WALL (22617672 calls)
     fft_scatt_yz :   3471.23s CPU   3542.10s WALL (22617672 calls)
 
     PWSCF        :      2h 0m CPU      2h 2m WALL

 
   This run was terminated on:  11:59:30   7Dec2021            

=------------------------------------------------------------------------------=
   JOB DONE.
=------------------------------------------------------------------------------=
