ITEM: TIMESTEP
0
ITEM: NUMBER OF ATOMS
256
ITEM: BOX BOUNDS pp pp pp
0.0000000000000000e+00 1.6160000000000000e+01
0.0000000000000000e+00 1.6160000000000000e+01
0.0000000000000000e+00 1.6160000000000000e+01
ITEM: ATOMS id x y z fx fy fz
1 0.404 0 0 -1.86078 1.76248e-15 1.73472e-15
2 2.02 2.02 0 0.401548 0.537891 -4.85723e-16
3 2.02 0 2.02 0.401548 -6.45317e-16 0.537891
4 0 2.02 2.02 -0.0258025 -0.0259083 -0.0259083
5 0 0 4.04 -0.00177885 1.23512e-15 -0.00317803
6 2.02 2.02 4.04 -0.00180573 -0.00496886 -0.0111607
17 0 4.04 0 -0.00177885 -0.00317803 1.23512e-15
19 2.02 4.04 2.02 -0.00180573 -0.0111607 -0.00496886
21 0 4.04 4.04 -0.00209072 -2.69075e-05 -2.69075e-05
65 4.04 0 0 0.0039339 1.23506e-15 1.30448e-15
68 4.04 2.02 2.02 -0.0188188 -0.0122734 -0.0122734
69 4.04 0 4.04 -0.0119755 1.24894e-15 -0.0115481
81 4.04 4.04 0 -0.0119755 -0.0115481 1.36009e-15
85 4.04 4.04 4.04 0.00042766 0.000788161 0.000788161
66 6.06 2.02 0 0.0122985 0.00477534 7.00828e-16
67 6.06 0 2.02 0.0122985 8.04912e-16 0.00477534
70 6.06 2.02 4.04 0.000862038 0.000437043 0.000791227
83 6.06 4.04 2.02 0.000862038 0.000791227 0.000437043
129 8.08 0 0 0.00109836 1.65146e-15 1.57513e-15
130 10.1 2.02 0 0.00202793 -0.000367172 1.35785e-15
131 10.1 0 2.02 0.00202793 1.2885e-15 -0.000367172
132 8.08 2.02 2.02 0.00068106 0.000189572 0.000189572
133 8.08 0 4.04 0.000433158 1.58207e-15 0.000217878
134 10.1 2.02 4.04 0.000998462 -0.000370755 -0.000550599
145 8.08 4.04 0 0.000433158 0.000217878 1.55438e-15
147 10.1 4.04 2.02 0.000998462 -0.000550599 -0.000370755
149 8.08 4.04 4.04 0.000158084 1.89779e-05 1.89779e-05
193 12.12 0 0 0.0720834 1.25594e-15 1.40513e-15
194 14.14 2.02 0 0.115286 -0.119505 5.6205e-16
195 14.14 0 2.02 0.115286 4.61436e-16 -0.119505
196 12.12 2.02 2.02 -0.0222194 0.0118389 0.0118389
197 12.12 0 4.04 0.00393412 1.22992e-15 -0.0050836
198 14.14 2.02 4.04 -0.0045844 0.00508236 0.011572
209 12.12 4.04 0 0.00393412 -0.0050836 1.33227e-15
211 14.14 4.04 2.02 -0.0045844 0.011572 0.00508236
213 12.12 4.04 4.04 0.000531985 -0.000773413 -0.000773413
18 2.02 6.06 0 -0.000109379 0.00181071 7.07767e-16
20 0 6.06 2.02 -0.000635811 -0.000152666 -5.63083e-05
22 2.02 6.06 4.04 -7.96186e-05 0.000315007 0.000309861
33 0 8.08 0 -0.000182038 -1.74166e-15 1.63758e-15
34 2.02 10.1 0 -0.000109379 -0.00181071 1.33227e-15
35 2.02 8.08 2.02 -5.04095e-05 -8.7777e-16 6.56207e-05
36 0 10.1 2.02 -0.000635811 0.000152666 -5.63083e-05
37 0 8.08 4.04 -3.91996e-05 -1.82493e-15 -2.05914e-06
38 2.02 10.1 4.04 -7.96186e-05 -0.000315007 0.000309861
84 4.04 6.06 2.02 0.000237097 0.000582776 0.000283884
97 4.04 8.08 0 5.54159e-05 -1.80476e-15 1.72088e-15
100 4.04 10.1 2.02 0.000237097 -0.000582776 0.000283884
101 4.04 8.08 4.04 1.84875e-05 -1.7557e-15 4.80971e-05
82 6.06 6.06 0 0.000362351 0.000403085 2.1233e-15
86 6.06 6.06 4.04 5.86172e-05 7.94142e-05 5.86106e-05
98 6.06 10.1 0 0.000362351 -0.000403085 2.50836e-15
99 6.06 8.08 2.02 4.86505e-05 -1.6584e-15 1.96036e-05
102 6.06 10.1 4.04 5.86172e-05 -7.94142e-05 5.86106e-05
146 10.1 6.06 0 0.000502258 -0.000479591 2.54147e-15
148 8.08 6.06 2.02 0.000107157 1.52955e-05 6.23076e-07
150 10.1 6.06 4.04 6.25073e-05 -6.73512e-05 -5.82006e-05
161 8.08 8.08 0 7.84125e-05 -2.09928e-15 2.16493e-15
162 10.1 10.1 0 0.000502258 0.000479591 2.98928e-15
163 10.1 8.08 2.02 6.28167e-05 -1.69829e-15 -3.61581e-05
164 8.08 10.1 2.02 0.000107157 -1.52955e-05 6.23076e-07
165 8.08 8.08 4.04 -2.19623e-15 -2.11473e-15 -1.83074e-15
166 10.1 10.1 4.04 6.25073e-05 6.73512e-05 -5.82006e-05
210 14.14 6.06 0 -0.000425849 -0.000845965 1.72778e-15
212 12.12 6.06 2.02 0.000294539 -0.000729157 -0.000391598
214 14.14 6.06 4.04 -4.15059e-05 -0.0004086 -0.00037177
225 12.12 8.08 0 4.82097e-05 -1.80932e-15 1.81799e-15
226 14.14 10.1 0 -0.000425849 0.000845965 2.07473e-15
227 14.14 8.08 2.02 -6.10577e-05 -1.27676e-15 -6.96412e-05
228 12.12 10.1 2.02 0.000294539 0.000729157 -0.000391598
229 12.12 8.08 4.04 2.07121e-05 -1.89258e-15 -7.09468e-05
230 14.14 10.1 4.04 -4.15059e-05 0.0004086 -0.00037177
49 0 12.12 0 -0.00177885 0.00317803 1.39819e-15
50 2.02 14.14 0 0.401548 -0.537891 4.71845e-16
51 2.02 12.12 2.02 -0.00180573 0.0111607 -0.00496886
52 0 14.14 2.02 -0.0258025 0.0259083 -0.0259083
53 0 12.12 4.04 -0.00209072 2.69075e-05 -2.69075e-05
54 2.02 14.14 4.04 -0.00180573 0.00496886 -0.0111607
113 4.04 12.12 0 -0.0119755 0.0115481 1.54731e-15
116 4.04 14.14 2.02 -0.0188188 0.0122734 -0.0122734
117 4.04 12.12 4.04 0.00042766 -0.000788161 0.000788161
114 6.06 14.14 0 0.0122985 -0.00477534 1.76942e-15
115 6.06 12.12 2.02 0.000862038 -0.000791227 0.000437043
118 6.06 14.14 4.04 0.000862038 -0.000437043 0.000791227
177 8.08 12.12 0 0.000433158 -0.000217878 1.80411e-15
178 10.1 14.14 0 0.00202793 0.000367172 2.11416e-15
179 10.1 12.12 2.02 0.000998462 0.000550599 -0.000370755
180 8.08 14.14 2.02 0.00068106 -0.000189572 0.000189572
181 8.08 12.12 4.04 0.000158084 -1.89779e-05 1.89779e-05
182 10.1 14.14 4.04 0.000998462 0.000370755 -0.000550599
241 12.12 12.12 0 0.00393412 0.0050836 1.34615e-15
242 14.14 14.14 0 0.115286 0.119505 1.38084e-15
243 14.14 12.12 2.02 -0.0045844 -0.011572 0.00508236
244 12.12 14.14 2.02 -0.0222194 -0.0118389 0.0118389
245 12.12 12.12 4.04 0.000531985 0.000773413 -0.000773413
246 14.14 14.14 4.04 -0.0045844 -0.00508236 0.011572
7 2.02 0 6.06 -0.000109379 8.04912e-16 0.00181071
8 0 2.02 6.06 -0.000635811 -5.63083e-05 -0.000152666
9 0 0 8.08 -0.000182038 1.63758e-15 -1.69309e-15
10 2.02 2.02 8.08 -5.04095e-05 6.56207e-05 -8.01442e-16
11 2.02 0 10.1 -0.000109379 1.36176e-15 -0.00181071
12 0 2.02 10.1 -0.000635811 -5.63083e-05 0.000152666
23 2.02 4.04 6.06 -7.96186e-05 0.000309861 0.000315007
25 0 4.04 8.08 -3.91996e-05 -2.05914e-06 -1.70697e-15
27 2.02 4.04 10.1 -7.96186e-05 0.000309861 -0.000315007
72 4.04 2.02 6.06 0.000237097 0.000283884 0.000582776
73 4.04 0 8.08 5.54159e-05 1.63752e-15 -1.76245e-15
76 4.04 2.02 10.1 0.000237097 0.000283884 -0.000582776
89 4.04 4.04 8.08 1.84875e-05 4.80971e-05 -1.83197e-15
71 6.06 0 6.06 0.000362351 2.08167e-15 0.000403085
74 6.06 2.02 8.08 4.86505e-05 1.96036e-05 -1.65666e-15
75 6.06 0 10.1 0.000362351 2.47025e-15 -0.000403085
87 6.06 4.04 6.06 5.86172e-05 5.86106e-05 7.94142e-05
91 6.06 4.04 10.1 5.86172e-05 5.86106e-05 -7.94142e-05
135 10.1 0 6.06 0.000502258 2.47208e-15 -0.000479591
136 8.08 2.02 6.06 0.000107157 6.23076e-07 1.52955e-05
137 8.08 0 8.08 7.84125e-05 1.91513e-15 -2.08167e-15
138 10.1 2.02 8.08 6.28167e-05 -3.61581e-05 -1.77809e-15
139 10.1 0 10.1 0.000502258 2.73569e-15 0.000479591
140 8.08 2.02 10.1 0.000107157 6.23076e-07 -1.52955e-05
151 10.1 4.04 6.06 6.25073e-05 -5.82006e-05 -6.73512e-05
153 8.08 4.04 8.08 -2.08517e-15 -1.94123e-15 -2.21007e-15
155 10.1 4.04 10.1 6.25073e-05 -5.82006e-05 6.73512e-05
199 14.14 0 6.06 -0.000425849 1.58901e-15 -0.000845965
200 12.12 2.02 6.06 0.000294539 -0.000391598 -0.000729157
201 12.12 0 8.08 4.82097e-05 1.58207e-15 -1.84748e-15
202 14.14 2.02 8.08 -6.10577e-05 -6.96412e-05 -1.36002e-15
203 14.14 0 10.1 -0.000425849 1.96371e-15 0.000845965
204 12.12 2.02 10.1 0.000294539 -0.000391598 0.000729157
215 14.14 4.04 6.06 -4.15059e-05 -0.00037177 -0.0004086
217 12.12 4.04 8.08 2.07121e-05 -7.09468e-05 -1.92034e-15
219 14.14 4.04 10.1 -4.15059e-05 -0.00037177 0.0004086
24 0 6.06 6.06 -3.68929e-05 -2.58538e-05 -2.58538e-05
26 2.02 6.06 8.08 -1.54484e-06 2.63179e-05 -1.60982e-15
28 0 6.06 10.1 -3.68929e-05 -2.58538e-05 2.58538e-05
39 2.02 8.08 6.06 -1.54484e-06 -1.6185e-15 2.63179e-05
40 0 10.1 6.06 -3.68929e-05 2.58538e-05 -2.58538e-05
41 0 8.08 8.08 1.97065e-15 -2.08167e-15 -2.13718e-15
42 2.02 10.1 8.08 -1.54484e-06 -2.63179e-05 -1.83013e-15
43 2.02 8.08 10.1 -1.54484e-06 -1.76421e-15 -2.63179e-05
44 0 10.1 10.1 -3.68929e-05 2.58538e-05 2.58538e-05
88 4.04 6.06 6.06 1.73899e-05 5.15624e-05 5.15624e-05
92 4.04 6.06 10.1 1.73899e-05 5.15624e-05 -5.15624e-05
104 4.04 10.1 6.06 1.73899e-05 -5.15624e-05 5.15624e-05
105 4.04 8.08 8.08 -1.85795e-15 -2.15276e-15 -2.32469e-15
108 4.04 10.1 10.1 1.73899e-05 -5.15624e-05 -5.15624e-05
90 6.06 6.06 8.08 2.43902e-15 2.44596e-15 -2.46331e-15
103 6.06 8.08 6.06 2.37731e-15 -2.40853e-15 2.48095e-15
106 6.06 10.1 8.08 2.44249e-15 1.04083e-17 -2.67147e-15
107 6.06 8.08 10.1 2.41821e-15 -2.54655e-15 8.13829e-18
152 8.08 6.06 6.06 -2.42319e-15 2.45415e-15 2.49842e-15
154 10.1 6.06 8.08 6.99022e-17 2.48974e-15 -2.63678e-15
156 8.08 6.06 10.1 -2.5327e-15 2.41689e-15 -1.51602e-17
167 10.1 8.08 6.06 5.61583e-17 -2.51265e-15 2.57703e-15
168 8.08 10.1 6.06 -2.52656e-15 -1.81892e-17 2.50949e-15
169 8.08 8.08 8.08 -2.41994e-15 -2.45116e-15 -2.64025e-15
170 10.1 10.1 8.08 4.85723e-17 3.46945e-18 -2.7478e-15
171 10.1 8.08 10.1 9.02056e-17 -2.55345e-15 -4.11184e-17
172 8.08 10.1 10.1 -2.56736e-15 3.5965e-18 -5.36951e-17
216 12.12 6.06 6.06 1.9503e-05 -4.81798e-05 -4.81798e-05
218 14.14 6.06 8.08 1.54484e-06 -2.79558e-05 -2.16493e-15
220 12.12 6.06 10.1 1.9503e-05 -4.81798e-05 4.81798e-05
231 14.14 8.08 6.06 1.54484e-06 -2.19963e-15 -2.79558e-05
232 12.12 10.1 6.06 1.9503e-05 4.81798e-05 -4.81798e-05
233 12.12 8.08 8.08 4.31946e-15 -2.18228e-15 -2.25167e-15
234 14.14 10.1 8.08 1.54484e-06 2.79558e-05 -2.16493e-15
235 14.14 8.08 10.1 1.54484e-06 -2.06085e-15 2.79558e-05
236 12.12 10.1 10.1 1.9503e-05 4.81798e-05 4.81798e-05
55 2.02 12.12 6.06 -7.96186e-05 -0.000309861 0.000315007
56 0 14.14 6.06 -0.000635811 5.63083e-05 -0.000152666
57 0 12.12 8.08 -3.91996e-05 2.05914e-06 -1.67921e-15
58 2.02 14.14 8.08 -5.04095e-05 -6.56207e-05 -1.42421e-15
59 2.02 12.12 10.1 -7.96186e-05 -0.000309861 -0.000315007
60 0 14.14 10.1 -0.000635811 5.63083e-05 0.000152666
120 4.04 14.14 6.06 0.000237097 -0.000283884 0.000582776
121 4.04 12.12 8.08 1.84875e-05 -4.80971e-05 -1.92205e-15
124 4.04 14.14 10.1 0.000237097 -0.000283884 -0.000582776
119 6.06 12.12 6.06 5.86172e-05 -5.86106e-05 7.94142e-05
122 6.06 14.14 8.08 4.86505e-05 -1.96036e-05 -2.17881e-15
123 6.06 12.12 10.1 5.86172e-05 -5.86106e-05 -7.94142e-05
183 10.1 12.12 6.06 6.25073e-05 5.82006e-05 -6.73512e-05
184 8.08 14.14 6.06 0.000107157 -6.23076e-07 1.52955e-05
185 8.08 12.12 8.08 -2.17187e-15 4.40967e-15 -2.17361e-15
186 10.1 14.14 8.08 6.28167e-05 3.61581e-05 -2.22045e-15
187 10.1 12.12 10.1 6.25073e-05 5.82006e-05 6.73512e-05
188 8.08 14.14 10.1 0.000107157 -6.23076e-07 -1.52955e-05
247 14.14 12.12 6.06 -4.15059e-05 0.00037177 -0.0004086
248 12.12 14.14 6.06 0.000294539 0.000391598 -0.000729157
249 12.12 12.12 8.08 2.07121e-05 7.09468e-05 -1.75207e-15
250 14.14 14.14 8.08 -6.10577e-05 6.96412e-05 -1.70697e-15
251 14.14 12.12 10.1 -4.15059e-05 0.00037177 0.0004086
252 12.12 14.14 10.1 0.000294539 0.000391598 0.000729157
13 0 0 12.12 -0.00177885 1.35308e-15 0.00317803
14 2.02 2.02 12.12 -0.00180573 -0.00496886 0.0111607
15 2.02 0 14.14 0.401548 6.10623e-16 -0.537891
16 0 2.02 14.14 -0.0258025 -0.0259083 0.0259083
29 0 4.04 12.12 -0.00209072 -2.69075e-05 2.69075e-05
31 2.02 4.04 14.14 -0.00180573 -0.0111607 0.00496886
77 4.04 0 12.12 -0.0119755 1.44323e-15 0.0115481
80 4.04 2.02 14.14 -0.0188188 -0.0122734 0.0122734
93 4.04 4.04 12.12 0.00042766 0.000788161 -0.000788161
78 6.06 2.02 12.12 0.000862038 0.000437043 -0.000791227
79 6.06 0 14.14 0.0122985 1.72085e-15 -0.00477534
95 6.06 4.04 14.14 0.000862038 0.000791227 -0.000437043
141 8.08 0 12.12 0.000433158 1.66533e-15 -0.000217878
142 10.1 2.02 12.12 0.000998462 -0.000370755 0.000550599
143 10.1 0 14.14 0.00202793 2.01007e-15 0.000367172
144 8.08 2.02 14.14 0.00068106 0.000189572 -0.000189572
157 8.08 4.04 12.12 0.000158084 1.89779e-05 -1.89779e-05
159 10.1 4.04 14.14 0.000998462 -0.000550599 0.000370755
205 12.12 0 12.12 0.00393412 1.1692e-15 0.0050836
206 14.14 2.02 12.12 -0.0045844 0.00508236 -0.011572
207 14.14 0 14.14 0.115286 1.249e-15 0.119505
208 12.12 2.02 14.14 -0.0222194 0.0118389 -0.0118389
221 12.12 4.04 12.12 0.000531985 -0.000773413 0.000773413
223 14.14 4.04 14.14 -0.0045844 0.011572 -0.00508236
30 2.02 6.06 12.12 -7.96186e-05 0.000315007 -0.000309861
32 0 6.06 14.14 -0.000635811 -0.000152666 5.63083e-05
45 0 8.08 12.12 -3.91996e-05 -1.66533e-15 2.05914e-06
46 2.02 10.1 12.12 -7.96186e-05 -0.000315007 -0.000309861
47 2.02 8.08 14.14 -5.04095e-05 -1.37564e-15 -6.56207e-05
48 0 10.1 14.14 -0.000635811 0.000152666 5.63083e-05
96 4.04 6.06 14.14 0.000237097 0.000582776 -0.000283884
109 4.04 8.08 12.12 1.84875e-05 -1.91507e-15 -4.80971e-05
112 4.04 10.1 14.14 0.000237097 -0.000582776 -0.000283884
94 6.06 6.06 12.12 5.86172e-05 7.94142e-05 -5.86106e-05
110 6.06 10.1 12.12 5.86172e-05 -7.94142e-05 -5.86106e-05
111 6.06 8.08 14.14 4.86505e-05 -2.17881e-15 -1.96036e-05
158 10.1 6.06 12.12 6.25073e-05 -6.73512e-05 5.82006e-05
160 8.08 6.06 14.14 0.000107157 1.52955e-05 -6.23076e-07
173 8.08 8.08 12.12 -2.17361e-15 -2.25514e-15 4.19456e-15
174 10.1 10.1 12.12 6.25073e-05 6.73512e-05 5.82006e-05
175 10.1 8.08 14.14 6.28167e-05 -2.08861e-15 3.61581e-05
176 8.08 10.1 14.14 0.000107157 -1.52955e-05 -6.23076e-07
222 14.14 6.06 12.12 -4.15059e-05 -0.0004086 0.00037177
224 12.12 6.06 14.14 0.000294539 -0.000729157 0.000391598
237 12.12 8.08 12.12 2.07121e-05 -1.87871e-15 7.09468e-05
238 14.14 10.1 12.12 -4.15059e-05 0.0004086 0.00037177
239 14.14 8.08 14.14 -6.10577e-05 -1.7486e-15 6.96412e-05
240 12.12 10.1 14.14 0.000294539 0.000729157 0.000391598
61 0 12.12 12.12 -0.00209072 2.69075e-05 2.69075e-05
62 2.02 14.14 12.12 -0.00180573 0.00496886 0.0111607
63 2.02 12.12 14.14 -0.00180573 0.0111607 0.00496886
64 0 14.14 14.14 -0.0258025 0.0259083 0.0259083
125 4.04 12.12 12.12 0.00042766 -0.000788161 -0.000788161
128 4.04 14.14 14.14 -0.0188188 0.0122734 0.0122734
126 6.06 14.14 12.12 0.000862038 -0.000437043 -0.000791227
127 6.06 12.12 14.14 0.000862038 -0.000791227 -0.000437043
189 8.08 12.12 12.12 0.000158084 -1.89779e-05 -1.89779e-05
190 10.1 14.14 12.12 0.000998462 0.000370755 0.000550599
191 10.1 12.12 14.14 0.000998462 0.000550599 0.000370755
192 8.08 14.14 14.14 0.00068106 -0.000189572 -0.000189572
253 12.12 12.12 12.12 0.000531985 0.000773413 0.000773413
254 14.14 14.14 12.12 -0.0045844 -0.00508236 -0.011572
255 14.14 12.12 14.14 -0.0045844 -0.011572 -0.00508236
256 12.12 14.14 14.14 -0.0222194 -0.0118389 -0.0118389
